
                                 *****************
                                 * O   R   C   A *
                                 *****************

                                            #,                                       
                                            ###                                      
                                            ####                                     
                                            #####                                    
                                            ######                                   
                                           ########,                                 
                                     ,,################,,,,,                         
                               ,,#################################,,                 
                          ,,##########################################,,             
                       ,#########################################, ''#####,          
                    ,#############################################,,   '####,        
                  ,##################################################,,,,####,       
                ,###########''''           ''''###############################       
              ,#####''   ,,,,##########,,,,          '''####'''          '####       
            ,##' ,,,,###########################,,,                        '##       
           ' ,,###''''                  '''############,,,                           
         ,,##''                                '''############,,,,        ,,,,,,###''
      ,#''                                            '''#######################'''  
     '                                                          ''''####''''         
             ,#######,   #######,   ,#######,      ##                                
            ,#'     '#,  ##    ##  ,#'     '#,    #''#        ,####,   ,####,        
            ##       ##  ##   ,#'  ##            #'  '#       #'       #'  '#        
            ##       ##  #######   ##           ,######,      #####,   #    #        
            '#,     ,#'  ##    ##  '#,     ,#' ,#      #,     #,   #   #,  ,#        
             '#######'   ##     ##  '#######'  #'      '#     '####' # '####'        



                #########################################################
                #                        -***-                          #
                #          Department of theory and spectroscopy        #
                #                                                       #
                #                      Frank Neese                      #
                #                                                       #
                #     Directorship, Architecture, Infrastructure        #
                #                    SHARK, DRIVERS                     #
                #        Core code/Algorithms in most modules           #
                #                                                       #
                #        Max Planck Institute fuer Kohlenforschung      #
                #                Kaiser Wilhelm Platz 1                 #
                #                 D-45470 Muelheim/Ruhr                 #
                #                      Germany                          #
                #                                                       #
                #                  All rights reserved                  #
                #                        -***-                          #
                #########################################################


                         Program Version 6.0.0  -   RELEASE  -


 With contributions from (in alphabetic order):
   Daniel Aravena         : Magnetic Suceptibility
   Michael Atanasov       : Ab Initio Ligand Field Theory (pilot matlab implementation)
   Alexander A. Auer      : GIAO ZORA, VPT2 properties, NMR spectrum
   Ute Becker             : All parallelization in ORCA, NUMFREQ, NUMCALC
   Giovanni Bistoni       : ED, misc. LED, open-shell LED, HFLD
   Martin Brehm           : Molecular dynamics
   Dmytro Bykov           : pre 5.0 version of the SCF Hessian
   Marcos Casanova-Páez   : Triplet and SCS-CIS(D). UHF-(DLPNO)-IP/EA/STEOM-CCSD. UHF-CVS-IP/STEOM-CCSD
   Vijay G. Chilkuri      : MRCI spin determinant printing, contributions to CSF-ICE
   Pauline Colinet        : FMM embedding
   Dipayan Datta          : RHF DLPNO-CCSD density
   Achintya Kumar Dutta   : EOM-CC, STEOM-CC
   Nicolas Foglia         : Exact transition moments, OPA infrastructure, MCD improvements
   Dmitry Ganyushin       : Spin-Orbit,Spin-Spin,Magnetic field MRCI
   Miquel Garcia          : C-PCM and meta-GGA Hessian, CCSD/C-PCM, Gaussian charge scheme
   Tiago L. C. Gouveia    : GS-ROHF, GS-ROCIS
   Yang Guo               : DLPNO-NEVPT2, F12-NEVPT2, CIM, IAO-localization
   Andreas Hansen         : Spin unrestricted coupled pair/coupled cluster methods
   Ingolf Harden          : AUTO-CI MPn and infrastructure 
   Benjamin Helmich-Paris : MC-RPA, TRAH-(SCF,CASSCF), AVAS, COSX integrals, SCF dyn. polar.
   Lee Huntington         : MR-EOM, pCC
   Robert Izsak           : Overlap fitted RIJCOSX, COSX-SCS-MP3, EOM
   Riya Kayal             : Wick's Theorem for AUTO-CI, AUTO-CI UHF-CCSDT
   Emily Kempfer          : AUTO-CI, RHF CISDT and CCSDT
   Christian Kollmar      : KDIIS, OOCD, Brueckner-CCSD(T), CCSD density, CASPT2, CASPT2-K, improved NEVPT2
   Axel Koslowski         : Symmetry handling
   Simone Kossmann        : Meta GGA functionals, TD-DFT gradient, OOMP2, (MP2 Hessian; deprecated post 5.0)
   Lucas Lang             : DCDCAS
   Marvin Lechner         : AUTO-CI (C++ implementation), FIC-MRCC
   Spencer Leger          : CASSCF response
   Dagmar Lenk            : GEPOL surface, SMD, ORCA-2-JSON
   Dimitrios Liakos       : Extrapolation schemes; Compound Job, initial MDCI parallelization
   Dimitrios Manganas     : Further ROCIS development; embedding schemes. LFT, Crystal Embedding
   Dimitrios Pantazis     : SARC Basis sets
   Anastasios Papadopoulos: AUTO-CI, single reference methods and gradients
   Taras Petrenko         : pre 6.0 DFT Hessian and TD-DFT gradient, (ASA, deprecated), ECA, 1-Electron XAS/XES, NRVS
   Peter Pinski           : DLPNO-MP2, DLPNO-MP2 Gradient
   Christoph Reimann      : Effective Core Potentials
   Marius Retegan         : Local ZFS, SOC
   Christoph Riplinger    : Optimizer, TS searches, QM/MM, DLPNO-CCSD(T), (RO)-DLPNO pert. Triples
   Michael Roemelt        : Original ROCIS implementation
   Masaaki Saitow         : Open-shell DLPNO-CCSD energy and density
   Barbara Sandhoefer     : DKH picture change effects
   Kantharuban Sivalingam : CASSCF convergence/infrastructure, NEVPT2 and variants, FIC-MRCI
   Bernardo de Souza      : ESD, SOC TD-DFT
   Georgi Stoychev        : AutoAux, RI-MP2 NMR, DLPNO-MP2 response, X2C
   Van Anh Tran           : RI-MP2 g-tensors
   Willem Van den Heuvel  : Paramagnetic NMR
   Zikuan Wang            : NOTCH, Electric field optimization 
   Frank Wennmohs         : Technical directorship and infrastructure
   Hang Xu                : AUTO-CI-Response properties 


 We gratefully acknowledge several colleagues who have allowed us to
 interface, adapt or use parts of their codes:
   Stefan Grimme, W. Hujo, H. Kruse, P. Pracht,  : VdW corrections, initial TS optimization,
                  C. Bannwarth, S. Ehlert,         DFT functionals, gCP, sTDA/sTD-DF
                  L. Wittmann, M. Mueller
   Ed Valeev, F. Pavosevic, A. Kumar             : LibInt (2-el integral package), F12 methods
   Garnet Chan, S. Sharma, J. Yang, R. Olivares  : DMRG
   Ulf Ekstrom                                   : XCFun DFT Library
   Mihaly Kallay                                 : mrcc  (arbitrary order and MRCC methods)
   Frank Weinhold                                : gennbo (NPA and NBO analysis)
   Simon Mueller                                 : openCOSMO-RS
   Christopher J. Cramer and Donald G. Truhlar   : smd solvation model
   Lars Goerigk                                  : TD-DFT with DH, B97 family of functionals
   V. Asgeirsson, H. Jonsson                     : NEB implementation
   FAccTs GmbH                                   : IRC, NEB, NEB-TS, DLPNO-Multilevel, CI-OPT
                                                   MM, QMMM, 2- and 3-layer-ONIOM, Crystal-QMMM,
                                                   LR-CPCM, SF, NACMEs, symmetry and pop. for TD-DFT,
                                                   nearIR, NL-DFT gradient (VV10), updates on ESD,
                                                   ML-optimized integration grids, MBIS, APM,
                                                   GOAT, DOCKER, SOLVATOR, interface openCOSMO-RS
   S Lehtola, MJT Oliveira, MAL Marques          : LibXC Library
   Liviu Ungur et al                             : ANISO software


 Your calculation uses the libint2 library for the computation of 2-el integrals
 For citations please refer to: http://libint.valeyev.net

 Your ORCA version has been built with support for libXC version: 6.2.2
 For citations please refer to: https://libxc.gitlab.io

 This ORCA versions uses:
   CBLAS   interface :  Fast vector & matrix operations
   LAPACKE interface :  Fast linear algebra routines
   SCALAPACK package :  Parallel linear algebra routines
   Shared memory     :  Shared parallel matrices
   BLAS/LAPACK       :  OpenBLAS 0.3.27  USE64BITINT DYNAMIC_ARCH NO_AFFINITY Zen SINGLE_THREADED
        Core in use  :  Zen
   Copyright (c) 2011-2014, The OpenBLAS Project


Your calculation utilizes the atom-pairwise dispersion correction
with the Becke-Johnson damping scheme (D3BJ)


Warning: RI is on but no J-basis has been assigned. Assigning Def2/J (nothing to worry about!)
================================================================================

----- Orbital basis set information -----
Your calculation utilizes the basis: def2-TZVPPD
   F. Weigend and R. Ahlrichs, Phys. Chem. Chem. Phys. 7, 3297 (2005).
   D. Rappoport and F. Furche, J. Chem. Phys. 133, 134105 (2010)
   D. Rappoport, J. Chem. Phys. 155, 124102 (2021).

----- AuxJ basis set information -----
Your calculation utilizes the auxiliary basis: def2/J
   F. Weigend, Phys. Chem. Chem. Phys. 8, 1057 (2006).

================================================================================
                                        WARNINGS
                       Please study these warnings very carefully!
================================================================================

Using LibXC functional ID 531 : wB97M-V exchange-correlation functional
[ 1]  N. Mardirossian and M. Head-Gordon.,  J. Chem. Phys. 144, 214110 (2016)
Using LibXC functional ID 531 : wB97M-V exchange-correlation functional
[ 1]  N. Mardirossian and M. Head-Gordon.,  J. Chem. Phys. 144, 214110 (2016)

WARNING: B97M-V or wB97M-V functional requested.
  ===> : libXC variant has now been activated.
         Any manually given DFX/HFX/RangeSep scaling parameters are IGNORED!

Your calculation utilizes LibXC
 by S Lehtola, C Steigemann, MJT Oliveira & MAL Marques
Please cite in your paper:
 S Lehtola, C Steigemann, MJT Oliveira & MAL Marques, SoftwareX, 7, (2018), 1.
   


WARNING: your system is open-shell and RHF/RKS was chosen
  ===> : WILL SWITCH to UHF/UKS

INFO   : Checking CIS options ...

WARNING: CIS/ROCIS methods need fully converged wavefunctions
  ===> : Setting SCFConvForced true
         You can overwrite this default with %scf ConvForced false 


================================================================================
                                       INPUT FILE
================================================================================
NAME = orca.inp
|  1> ! Engrad def2-TZVPPD wB97M-D3BJ 
|  2> %pal nprocs 8 end%pal nprocs 64 end 
|  3> %tddft Nroots 2 Iroot 2 
|  4> sf true 
|  5> end 
|  6> *xyz 0 3 
|  7> O   2.35145495 -0.44270264 -1.19216708
|  8> O   -0.24311088 3.0028494 -2.34739919
|  9> O   0.44701003 -3.99311921 0.75896717
| 10> O   -2.02025286 -1.08081973 -1.33259332
| 11> N   0.42150655 -1.99612532 1.9953994
| 12> N   -1.29518177 -0.06314274 0.51205596
| 13> N   1.15338495 -2.06932777 -0.22966818
| 14> N   -0.8768698 0.83978387 -1.69180222
| 15> C   1.34325027 0.06515809 0.9503777
| 16> C   -1.31193317 2.7304973 -0.27698713
| 17> C   0.66726888 -0.56323417 2.10421071
| 18> C   -0.15633052 0.37199593 1.25881074
| 19> C   2.23037453 1.37170537 1.02585614
| 20> C   -1.32270727 3.58001902 0.90675297
| 21> C   1.62346909 -0.77503175 -0.22272962
| 22> C   -0.81029594 2.27585815 -1.54306735
| 23> C   0.60675747 -2.77627876 0.87721969
| 24> C   -1.44362674 -0.1267725 -0.87238248
| 25> H   0.75176507 -0.16192096 3.06479448
| 26> H   -0.27129327 1.34846652 1.77194218
| 27> H   1.99301579 2.13338175 0.23577964
| 28> H   2.07169583 1.86562875 1.99298962
| 29> H   3.30397271 1.01128189 0.95707775
| 30> H   -2.00687695 3.29003792 1.6817948
| 31> H   -0.29926928 3.7113322 1.37342025
| 32> H   -1.54130656 4.61576091 0.54776676
| 33> H   0.33862202 -2.61947799 2.80961712
| 34> H   -2.02006303 -0.66411224 1.00327474
| 35> H   1.19788351 -2.6132648 -1.0899455
| 36> H   -0.74482502 0.51334423 -2.61987013
| 37> *
| 38> 
| 39>                          ****END OF INPUT****
================================================================================

                     *******************************
                     * Energy+Gradient Calculation *
                     *******************************

---------------------------------
CARTESIAN COORDINATES (ANGSTROEM)
---------------------------------
  O      2.351455   -0.442703   -1.192167
  O     -0.243111    3.002849   -2.347399
  O      0.447010   -3.993119    0.758967
  O     -2.020253   -1.080820   -1.332593
  N      0.421507   -1.996125    1.995399
  N     -1.295182   -0.063143    0.512056
  N      1.153385   -2.069328   -0.229668
  N     -0.876870    0.839784   -1.691802
  C      1.343250    0.065158    0.950378
  C     -1.311933    2.730497   -0.276987
  C      0.667269   -0.563234    2.104211
  C     -0.156331    0.371996    1.258811
  C      2.230375    1.371705    1.025856
  C     -1.322707    3.580019    0.906753
  C      1.623469   -0.775032   -0.222730
  C     -0.810296    2.275858   -1.543067
  C      0.606757   -2.776279    0.877220
  C     -1.443627   -0.126773   -0.872382
  H      0.751765   -0.161921    3.064794
  H     -0.271293    1.348467    1.771942
  H      1.993016    2.133382    0.235780
  H      2.071696    1.865629    1.992990
  H      3.303973    1.011282    0.957078
  H     -2.006877    3.290038    1.681795
  H     -0.299269    3.711332    1.373420
  H     -1.541307    4.615761    0.547767
  H      0.338622   -2.619478    2.809617
  H     -2.020063   -0.664112    1.003275
  H      1.197884   -2.613265   -1.089946
  H     -0.744825    0.513344   -2.619870

----------------------------
CARTESIAN COORDINATES (A.U.)
----------------------------
  NO LB      ZA    FRAG     MASS         X           Y           Z
   0 O     8.0000    0    15.999    4.443606   -0.836587   -2.252869
   1 O     8.0000    0    15.999   -0.459413    5.674563   -4.435942
   2 O     8.0000    0    15.999    0.844727   -7.545902    1.434240
   3 O     8.0000    0    15.999   -3.817725   -2.042453   -2.518236
   4 N     7.0000    0    14.007    0.796532   -3.772130    3.770758
   5 N     7.0000    0    14.007   -2.447539   -0.119322    0.967646
   6 N     7.0000    0    14.007    2.179582   -3.910463   -0.434010
   7 N     7.0000    0    14.007   -1.657044    1.586962   -3.197043
   8 C     6.0000    0    12.011    2.538375    0.123131    1.795954
   9 C     6.0000    0    12.011   -2.479194    5.159892   -0.523430
  10 C     6.0000    0    12.011    1.260955   -1.064358    3.976382
  11 C     6.0000    0    12.011   -0.295422    0.702970    2.378808
  12 C     6.0000    0    12.011    4.214797    2.592147    1.938587
  13 C     6.0000    0    12.011   -2.499554    6.765256    1.713515
  14 C     6.0000    0    12.011    3.067912   -1.464598   -0.420898
  15 C     6.0000    0    12.011   -1.531237    4.300749   -2.915975
  16 C     6.0000    0    12.011    1.146605   -5.246407    1.657705
  17 C     6.0000    0    12.011   -2.728059   -0.239565   -1.648564
  18 H     1.0000    0     1.008    1.420630   -0.305986    5.791622
  19 H     1.0000    0     1.008   -0.512670    2.548232    3.348485
  20 H     1.0000    0     1.008    3.766254    4.031507    0.445559
  21 H     1.0000    0     1.008    3.914938    3.525527    3.766205
  22 H     1.0000    0     1.008    6.243604    1.911046    1.808615
  23 H     1.0000    0     1.008   -3.792448    6.217271    3.178132
  24 H     1.0000    0     1.008   -0.565537    7.013401    2.595388
  25 H     1.0000    0     1.008   -2.912647    8.722524    1.035129
  26 H     1.0000    0     1.008    0.639903   -4.950096    5.309407
  27 H     1.0000    0     1.008   -3.817366   -1.254990    1.895914
  28 H     1.0000    0     1.008    2.263672   -4.938355   -2.059698
  29 H     1.0000    0     1.008   -1.407515    0.970080   -4.950837

--------------------------------
INTERNAL COORDINATES (ANGSTROEM)
--------------------------------
 O      0   0   0     0.000000000000     0.00000000     0.00000000
 O      1   0   0     4.465216896695     0.00000000     0.00000000
 O      1   2   0     4.476526905467   118.52669804     0.00000000
 O      3   1   2     4.352413090793    60.06728473    16.04484892
 N      3   1   2     2.348914575623    63.88062002   293.60689053
 N      4   3   1     2.228031756446    73.93597845   289.49577512
 N      1   2   3     2.237785774141   111.16700789   359.64271639
 N      4   3   1     2.263862638074   110.95365955   344.12683188
 C      1   2   3     2.421755010763    79.93109995   303.69321377
 C      2   1   3     2.345882105343    86.95142824    42.66024662
 C      5   3   1     1.457880678169   150.81640010     7.21245217
 C      6   4   3     1.429674974674   146.17070608    59.80775611
 C      9   1   2     1.581060480330    88.96529929   287.89191275
 C     10   2   1     1.457066868174   130.74499099   111.61735757
 C      1   2   3     1.257066043836    93.84271232   330.13076144
 C      2   1   3     1.223586890540    68.94938804    17.17179709
 C      3   1   2     1.232965361975    37.24419228   301.93660521
 C      4   3   1     1.206025628497    94.29618802   316.52544934
 H     11   5   3     1.044467844327   117.38202832   199.41669950
 H     12   6   4     1.109060468026   115.28165889   142.00583165
 H     13   9   1     1.122813855969   114.10291981    65.05657245
 H     13   9   1     1.097490958177   109.44195797   184.27298402
 H     13   9   1     1.134569788054   105.39842951   301.90060848
 H     14  10   2     1.073716455885   115.70100150   171.79629289
 H     14  10   2     1.132451685874   113.31007944   297.36290279
 H     14  10   2     1.117773685170   106.30661007    48.14513969
 H      5   3   1     1.028780293392    84.39566741   203.92619578
 H      6   4   3     1.062032518737    84.39629855   284.59628368
 H      7   1   2     1.018785886118    90.08678665   103.54158218
 H      8   4   3     0.992627174754    86.36137021   100.91871912

---------------------------
INTERNAL COORDINATES (A.U.)
---------------------------
 O      0   0   0     0.000000000000     0.00000000     0.00000000
 O      1   0   0     8.438037063311     0.00000000     0.00000000
 O      1   2   0     8.459409882462   118.52669804     0.00000000
 O      3   1   2     8.224868763293    60.06728473    16.04484892
 N      3   1   2     4.438805259903    63.88062002   293.60689053
 N      4   3   1     4.210369837363    73.93597845   289.49577512
 N      1   2   3     4.228802259512   111.16700789   359.64271639
 N      4   3   1     4.278080390776   110.95365955   344.12683188
 C      1   2   3     4.576453733793    79.93109995   303.69321377
 C      2   1   3     4.433074721565    86.95142824    42.66024662
 C      5   3   1     2.754995217675   150.81640010     7.21245217
 C      6   4   3     2.701694162654   146.17070608    59.80775611
 C      9   1   2     2.987771308989    88.96529929   287.89191275
 C     10   2   1     2.753457339659   130.74499099   111.61735757
 C      1   2   3     2.375510555101    93.84271232   330.13076144
 C      2   1   3     2.312244124177    68.94938804    17.17179709
 C      3   1   2     2.329966866743    37.24419228   301.93660521
 C      4   3   1     2.279058148349    94.29618802   316.52544934
 H     11   5   3     1.973758181465   117.38202832   199.41669950
 H     12   6   4     2.095820550528   115.28165889   142.00583165
 H     13   9   1     2.121810687154   114.10291981    65.05657245
 H     13   9   1     2.073957345410   109.44195797   184.27298402
 H     13   9   1     2.144026179244   105.39842951   301.90060848
 H     14  10   2     2.029030047107   115.70100150   171.79629289
 H     14  10   2     2.140023546200   113.31007944   297.36290279
 H     14  10   2     2.112286144676   106.30661007    48.14513969
 H      5   3   1     1.944113006486    84.39566741   203.92619578
 H      6   4   3     2.006950605731    84.39629855   284.59628368
 H      7   1   2     1.925226313868    90.08678665   103.54158218
 H      8   4   3     1.875793513373    86.36137021   100.91871912

---------------------
BASIS SET INFORMATION
---------------------
There are 4 groups of distinct atoms

 Group   1 Type O   : 12s7p3d1f contracted to 6s4p3d1f pattern {621111/4111/111/1}
 Group   2 Type N   : 12s6p3d1f contracted to 6s3p3d1f pattern {621111/411/111/1}
 Group   3 Type C   : 12s6p3d1f contracted to 6s3p3d1f pattern {621111/411/111/1}
 Group   4 Type H   : 5s3p1d contracted to 3s3p1d pattern {311/111/1}

Atom   0O    basis set group =>   1
Atom   1O    basis set group =>   1
Atom   2O    basis set group =>   1
Atom   3O    basis set group =>   1
Atom   4N    basis set group =>   2
Atom   5N    basis set group =>   2
Atom   6N    basis set group =>   2
Atom   7N    basis set group =>   2
Atom   8C    basis set group =>   3
Atom   9C    basis set group =>   3
Atom  10C    basis set group =>   3
Atom  11C    basis set group =>   3
Atom  12C    basis set group =>   3
Atom  13C    basis set group =>   3
Atom  14C    basis set group =>   3
Atom  15C    basis set group =>   3
Atom  16C    basis set group =>   3
Atom  17C    basis set group =>   3
Atom  18H    basis set group =>   4
Atom  19H    basis set group =>   4
Atom  20H    basis set group =>   4
Atom  21H    basis set group =>   4
Atom  22H    basis set group =>   4
Atom  23H    basis set group =>   4
Atom  24H    basis set group =>   4
Atom  25H    basis set group =>   4
Atom  26H    basis set group =>   4
Atom  27H    basis set group =>   4
Atom  28H    basis set group =>   4
Atom  29H    basis set group =>   4
---------------------------------
AUXILIARY/J BASIS SET INFORMATION
---------------------------------
There are 4 groups of distinct atoms

 Group   1 Type O   : 12s5p4d2f1g contracted to 6s4p3d1f1g pattern {711111/2111/211/2/1}
 Group   2 Type N   : 12s5p4d2f1g contracted to 6s4p3d1f1g pattern {711111/2111/211/2/1}
 Group   3 Type C   : 12s5p4d2f1g contracted to 6s4p3d1f1g pattern {711111/2111/211/2/1}
 Group   4 Type H   : 5s2p1d contracted to 3s1p1d pattern {311/2/1}

Atom   0O    basis set group =>   1
Atom   1O    basis set group =>   1
Atom   2O    basis set group =>   1
Atom   3O    basis set group =>   1
Atom   4N    basis set group =>   2
Atom   5N    basis set group =>   2
Atom   6N    basis set group =>   2
Atom   7N    basis set group =>   2
Atom   8C    basis set group =>   3
Atom   9C    basis set group =>   3
Atom  10C    basis set group =>   3
Atom  11C    basis set group =>   3
Atom  12C    basis set group =>   3
Atom  13C    basis set group =>   3
Atom  14C    basis set group =>   3
Atom  15C    basis set group =>   3
Atom  16C    basis set group =>   3
Atom  17C    basis set group =>   3
Atom  18H    basis set group =>   4
Atom  19H    basis set group =>   4
Atom  20H    basis set group =>   4
Atom  21H    basis set group =>   4
Atom  22H    basis set group =>   4
Atom  23H    basis set group =>   4
Atom  24H    basis set group =>   4
Atom  25H    basis set group =>   4
Atom  26H    basis set group =>   4
Atom  27H    basis set group =>   4
Atom  28H    basis set group =>   4
Atom  29H    basis set group =>   4
[1739906765.268298] [ohm:400021:0]        ib_iface.c:1059 UCX  ERROR ibv_create_cq(cqe=256) failed: Connection timed out
[1739906765.268880] [ohm:400024:0]        ib_iface.c:1059 UCX  ERROR ibv_create_cq(cqe=256) failed: Connection timed out
[1739906765.295035] [ohm:400020:0]        ib_iface.c:1059 UCX  ERROR ibv_create_cq(cqe=256) failed: Connection timed out
[1739906765.300213] [ohm:400022:0]        ib_iface.c:1059 UCX  ERROR ibv_create_cq(cqe=256) failed: Connection timed out
[1739906765.323392] [ohm:400028:0]        ib_iface.c:1059 UCX  ERROR ibv_create_cq(cqe=256) failed: Connection timed out
[1739906765.328813] [ohm:400029:0]        ib_iface.c:1059 UCX  ERROR ibv_create_cq(cqe=256) failed: Connection timed out
[1739906765.328943] [ohm:400027:0]        ib_iface.c:1059 UCX  ERROR ibv_create_cq(cqe=256) failed: Connection timed out
[1739906765.333829] [ohm:400031:0]        ib_iface.c:1059 UCX  ERROR ibv_create_cq(cqe=256) failed: Connection timed out
[1739906765.342549] [ohm:400026:0]        ib_iface.c:1059 UCX  ERROR ibv_create_cq(cqe=256) failed: Connection timed out
[1739906765.348099] [ohm:400025:0]        ib_iface.c:1059 UCX  ERROR ibv_create_cq(cqe=256) failed: Connection timed out
[1739906765.357554] [ohm:400023:0]        ib_iface.c:1059 UCX  ERROR ibv_create_cq(cqe=256) failed: Connection timed out
[1739906765.369775] [ohm:400110:0]        ib_iface.c:1059 UCX  ERROR ibv_create_cq(cqe=256) failed: Connection timed out
[1739906765.370462] [ohm:400036:0]        ib_iface.c:1059 UCX  ERROR ibv_create_cq(cqe=256) failed: Connection timed out
[1739906765.377014] [ohm:400019:0]        ib_iface.c:1059 UCX  ERROR ibv_create_cq(cqe=256) failed: Connection timed out
[1739906765.380427] [ohm:400048:0]        ib_iface.c:1059 UCX  ERROR ibv_create_cq(cqe=256) failed: Connection timed out
[1739906765.385053] [ohm:400092:0]        ib_iface.c:1059 UCX  ERROR ibv_create_cq(cqe=256) failed: Connection timed out
[1739906765.411814] [ohm:400069:0]        ib_iface.c:1059 UCX  ERROR ibv_create_cq(cqe=256) failed: Connection timed out
[1739906765.422960] [ohm:400030:0]        ib_iface.c:1059 UCX  ERROR ibv_create_cq(cqe=256) failed: Connection timed out
[1739906765.442630] [ohm:400149:0]        ib_iface.c:1059 UCX  ERROR ibv_create_cq(cqe=256) failed: Connection timed out
[1739906765.456865] [ohm:400143:0]        ib_iface.c:1059 UCX  ERROR ibv_create_cq(cqe=256) failed: Connection timed out
[1739906765.459376] [ohm:400041:0]        ib_iface.c:1059 UCX  ERROR ibv_create_cq(cqe=256) failed: Connection timed out
[1739906765.460789] [ohm:400141:0]        ib_iface.c:1059 UCX  ERROR ibv_create_cq(cqe=256) failed: Connection timed out
[1739906765.483990] [ohm:400087:0]        ib_iface.c:1059 UCX  ERROR ibv_create_cq(cqe=256) failed: Connection timed out
[1739906765.484687] [ohm:400129:0]        ib_iface.c:1059 UCX  ERROR ibv_create_cq(cqe=256) failed: Connection timed out
[1739906765.484971] [ohm:400080:0]        ib_iface.c:1059 UCX  ERROR ibv_create_cq(cqe=256) failed: Connection timed out
[1739906765.485101] [ohm:400061:0]        ib_iface.c:1059 UCX  ERROR ibv_create_cq(cqe=256) failed: Connection timed out
[1739906765.487288] [ohm:400075:0]        ib_iface.c:1059 UCX  ERROR ibv_create_cq(cqe=256) failed: Connection timed out
[1739906765.505346] [ohm:400146:0]        ib_iface.c:1059 UCX  ERROR ibv_create_cq(cqe=256) failed: Connection timed out
[1739906765.511224] [ohm:400164:0]        ib_iface.c:1059 UCX  ERROR ibv_create_cq(cqe=256) failed: Connection timed out
[1739906765.520222] [ohm:400133:0]        ib_iface.c:1059 UCX  ERROR ibv_create_cq(cqe=256) failed: Connection timed out
[1739906765.524410] [ohm:400081:0]        ib_iface.c:1059 UCX  ERROR ibv_create_cq(cqe=256) failed: Connection timed out
[1739906765.524882] [ohm:400099:0]        ib_iface.c:1059 UCX  ERROR ibv_create_cq(cqe=256) failed: Connection timed out
[1739906765.528581] [ohm:400127:0]        ib_iface.c:1059 UCX  ERROR ibv_create_cq(cqe=256) failed: Connection timed out
[1739906765.533718] [ohm:400158:0]        ib_iface.c:1059 UCX  ERROR ibv_create_cq(cqe=256) failed: Connection timed out
[1739906765.539147] [ohm:400152:0]        ib_iface.c:1059 UCX  ERROR ibv_create_cq(cqe=256) failed: Connection timed out
[1739906765.558695] [ohm:400038:0]        ib_iface.c:1059 UCX  ERROR ibv_create_cq(cqe=256) failed: Connection timed out
[1739906765.562793] [ohm:400138:0]        ib_iface.c:1059 UCX  ERROR ibv_create_cq(cqe=256) failed: Connection timed out
[1739906765.562916] [ohm:400161:0]        ib_iface.c:1059 UCX  ERROR ibv_create_cq(cqe=256) failed: Connection timed out
[1739906765.563189] [ohm:400126:0]        ib_iface.c:1059 UCX  ERROR ibv_create_cq(cqe=256) failed: Connection timed out
[1739906765.563333] [ohm:400120:0]        ib_iface.c:1059 UCX  ERROR ibv_create_cq(cqe=256) failed: Connection timed out
[1739906765.568407] [ohm:400104:0]        ib_iface.c:1059 UCX  ERROR ibv_create_cq(cqe=256) failed: Connection timed out
[1739906765.575072] [ohm:400039:0]        ib_iface.c:1059 UCX  ERROR ibv_create_cq(cqe=256) failed: Connection timed out
[1739906765.577007] [ohm:400067:0]        ib_iface.c:1059 UCX  ERROR ibv_create_cq(cqe=256) failed: Connection timed out
[1739906765.579395] [ohm:400063:0]        ib_iface.c:1059 UCX  ERROR ibv_create_cq(cqe=256) failed: Connection timed out
[1739906765.583238] [ohm:400156:0]        ib_iface.c:1059 UCX  ERROR ibv_create_cq(cqe=256) failed: Connection timed out
[1739906765.587226] [ohm:400032:0]        ib_iface.c:1059 UCX  ERROR ibv_create_cq(cqe=256) failed: Connection timed out
[1739906765.589685] [ohm:400112:0]        ib_iface.c:1059 UCX  ERROR ibv_create_cq(cqe=256) failed: Connection timed out
[1739906765.595705] [ohm:400037:0]        ib_iface.c:1059 UCX  ERROR ibv_create_cq(cqe=256) failed: Connection timed out
[1739906765.598229] [ohm:400051:0]        ib_iface.c:1059 UCX  ERROR ibv_create_cq(cqe=256) failed: Connection timed out
[1739906765.602194] [ohm:400040:0]        ib_iface.c:1059 UCX  ERROR ibv_create_cq(cqe=256) failed: Connection timed out
[1739906765.606251] [ohm:400072:0]        ib_iface.c:1059 UCX  ERROR ibv_create_cq(cqe=256) failed: Connection timed out
[1739906765.608104] [ohm:400045:0]        ib_iface.c:1059 UCX  ERROR ibv_create_cq(cqe=256) failed: Connection timed out
[1739906765.609973] [ohm:400042:0]        ib_iface.c:1059 UCX  ERROR ibv_create_cq(cqe=256) failed: Connection timed out
[1739906765.610187] [ohm:400106:0]        ib_iface.c:1059 UCX  ERROR ibv_create_cq(cqe=256) failed: Connection timed out
[1739906765.611684] [ohm:400035:0]        ib_iface.c:1059 UCX  ERROR ibv_create_cq(cqe=256) failed: Connection timed out
[1739906765.614761] [ohm:400135:0]        ib_iface.c:1059 UCX  ERROR ibv_create_cq(cqe=256) failed: Connection timed out
[1739906765.614811] [ohm:400055:0]        ib_iface.c:1059 UCX  ERROR ibv_create_cq(cqe=256) failed: Connection timed out
[1739906765.616021] [ohm:400118:0]        ib_iface.c:1059 UCX  ERROR ibv_create_cq(cqe=256) failed: Connection timed out
[1739906765.617589] [ohm:400097:0]        ib_iface.c:1059 UCX  ERROR ibv_create_cq(cqe=256) failed: Connection timed out
[1739906765.618712] [ohm:400043:0]        ib_iface.c:1059 UCX  ERROR ibv_create_cq(cqe=256) failed: Connection timed out
[1739906765.619269] [ohm:400044:0]        ib_iface.c:1059 UCX  ERROR ibv_create_cq(cqe=256) failed: Connection timed out
[1739906765.620050] [ohm:400034:0]        ib_iface.c:1059 UCX  ERROR ibv_create_cq(cqe=256) failed: Connection timed out
[1739906765.620222] [ohm:400033:0]        ib_iface.c:1059 UCX  ERROR ibv_create_cq(cqe=256) failed: Connection timed out
[1739906765.620331] [ohm:400086:0]        ib_iface.c:1059 UCX  ERROR ibv_create_cq(cqe=256) failed: Connection timed out


           ************************************************************
           *        Program running with 64 parallel MPI-processes    *
           *              working on a common directory               *
           ************************************************************
------------------------------------------------------------------------------
                             ORCA STARTUP CALCULATIONS
                           -- RI-GTO INTEGRALS CHOSEN --
------------------------------------------------------------------------------
------------------------------------------------------------------------------
                   ___                                                        
                  /   \      - P O W E R E D   B Y -                         
                 /     \                                                     
                 |  |  |   _    _      __       _____    __    __             
                 |  |  |  | |  | |    /  \     |  _  \  |  |  /  |          
                  \  \/   | |  | |   /    \    | | | |  |  | /  /          
                 / \  \   | |__| |  /  /\  \   | |_| |  |  |/  /          
                |  |  |   |  __  | /  /__\  \  |    /   |      \           
                |  |  |   | |  | | |   __   |  |    \   |  |\   \          
                \     /   | |  | | |  |  |  |  | |\  \  |  | \   \       
                 \___/    |_|  |_| |__|  |__|  |_| \__\ |__|  \__/        
                                                                              
                      - O R C A' S   B I G   F R I E N D -                    
                                      &                                       
                       - I N T E G R A L  F E E D E R -                       
                                                                              
 v1 FN, 2020, v2 2021, v3 2022-2024                                           
------------------------------------------------------------------------------


----------------------
SHARK INTEGRAL PACKAGE
----------------------

Number of atoms                             ...     30
Number of basis functions                   ...    882
Number of shells                            ...    322
Maximum angular momentum                    ...      3
Integral batch strategy                     ... SHARK/LIBINT Hybrid
RI-J (if used) integral strategy            ... SPLIT-RIJ (Revised 2003 algorithm where possible)
Printlevel                                  ...      1
Contraction scheme used                     ... SEGMENTED contraction
Prescreening option                         ... SCHWARTZ
   Thresh                                   ... 2.500e-11
   Tcut                                     ... 2.500e-12
   Tpresel                                  ... 2.500e-12 
Coulomb Range Separation                    ... NOT USED
Exchange Range Separation                   ... Long Range
   Mu parameter                             ... 3.000e-01
   Scaling (regular/separated)              ... 1.500e-01 8.500e-01
Multipole approximations                    ... NOT USED
Finite Nucleus Model                        ... NOT USED
CABS basis                                  ... NOT available
Auxiliary Coulomb fitting basis             ... AVAILABLE
   # of basis functions in Aux-J            ...   1014
   # of shells in Aux-J                     ...    330
   Maximum angular momentum in Aux-J        ...      4
Auxiliary J/K fitting basis                 ... NOT available
Auxiliary Correlation fitting basis         ... NOT available
Auxiliary 'external' fitting basis          ... NOT available

Checking pre-screening integrals            ... done (  0.0 sec) Dimension = 322
Check shell pair data                       ... done (  0.0 sec)
Shell pair information
Shell pair cut-off parameter TPreSel        ...   2.5e-12
Total number of shell pairs                 ...     52003
Shell pairs after pre-screening             ...     44177
Total number of primitive shell pairs       ...    129718
Primitive shell pairs kept                  ...     81989
          la=0 lb=0:   8554 shell pairs
          la=1 lb=0:  11716 shell pairs
          la=1 lb=1:   4053 shell pairs
          la=2 lb=0:   7934 shell pairs
          la=2 lb=1:   5493 shell pairs
          la=2 lb=2:   1888 shell pairs
          la=3 lb=0:   1998 shell pairs
          la=3 lb=1:   1434 shell pairs
          la=3 lb=2:    975 shell pairs
          la=3 lb=3:    132 shell pairs

Calculating one electron integrals          ... done (  0.2 sec)
Calculating RI/J V-Matrix + Cholesky decomp.... done (  0.1 sec)
Calculating Nuclear repulsion               ... done (  0.0 sec) ENN=   1401.366053748681 Eh

Diagonalization of the overlap matrix:
Smallest eigenvalue                        ... 4.150e-07
Time for diagonalization                   ...    0.125 sec
Threshold for overlap eigenvalues          ... 1.000e-07
Number of eigenvalues below threshold      ... 0

IMPORTANT:
Smallest eigenvalue of S below the DiffSThresh (1.000e-06) while
Thresh>1e-12 and/or TCut>1e-13! In order to avoid SCF convergence issues,
Thresh will be set to at least 1e-12 and TCut to at least 1e-13.
This can be turned off by adding %SCF DiffSThresh -1 END to the input.

Time for construction of square roots      ...    0.131 sec
Total time needed                          ...    0.271 sec

-------------------
DFT GRID GENERATION
-------------------

General Integration Accuracy     IntAcc      ... 4.388
Radial Grid Type                 RadialGrid  ... OptM3 with GC (2021)
Angular Grid (max. ang.)         AngularGrid ... 4 (Lebedev-302)
Angular grid pruning method      GridPruning ... 4 (adaptive)
Weight generation scheme         WeightScheme... mBecke (2022)
Basis function cutoff            BFCut       ... 1.0000e-11
Integration weight cutoff        WCut        ... 1.0000e-14
Partially contracted basis set               ... off
Rotationally invariant grid construction     ... off
Angular grids for H and He will be reduced by one unit
Diffuse basis detected: some atoms will have their outermost
                        angular grid increased by 1.

Total number of grid points                  ...   152475
Total number of batches                      ...     2401
Average number of points per batch           ...       63
Average number of grid points per atom       ...     5082

--------------------
COSX GRID GENERATION
--------------------

GRIDX 1
-------
General Integration Accuracy     IntAcc      ... 3.816
Radial Grid Type                 RadialGrid  ... OptM3 with GC (2021)
Angular Grid (max. ang.)         AngularGrid ... 1 (Lebedev-50)
Angular grid pruning method      GridPruning ... 4 (adaptive)
Weight generation scheme         WeightScheme... mBecke (2022)
Basis function cutoff            BFCut       ... 1.0000e-11
Integration weight cutoff        WCut        ... 1.0000e-14
Partially contracted basis set               ... on
Rotationally invariant grid construction     ... off
Angular grids for H and He will be reduced by one unit
Diffuse basis detected: some atoms will have their outermost
                        angular grid increased by 1.

Total number of grid points                  ...    19102
Total number of batches                      ...      165
Average number of points per batch           ...      115
Average number of grid points per atom       ...      637
UseSFitting                                  ... on

GRIDX 2
-------
General Integration Accuracy     IntAcc      ... 4.020
Radial Grid Type                 RadialGrid  ... OptM3 with GC (2021)
Angular Grid (max. ang.)         AngularGrid ... 2 (Lebedev-110)
Angular grid pruning method      GridPruning ... 4 (adaptive)
Weight generation scheme         WeightScheme... mBecke (2022)
Basis function cutoff            BFCut       ... 1.0000e-11
Integration weight cutoff        WCut        ... 1.0000e-14
Partially contracted basis set               ... on
Rotationally invariant grid construction     ... off
Angular grids for H and He will be reduced by one unit
Diffuse basis detected: some atoms will have their outermost
                        angular grid increased by 1.

Total number of grid points                  ...    46156
Total number of batches                      ...      378
Average number of points per batch           ...      122
Average number of grid points per atom       ...     1539
UseSFitting                                  ... on

GRIDX 3
-------
General Integration Accuracy     IntAcc      ... 4.338
Radial Grid Type                 RadialGrid  ... OptM3 with GC (2021)
Angular Grid (max. ang.)         AngularGrid ... 3 (Lebedev-194)
Angular grid pruning method      GridPruning ... 4 (adaptive)
Weight generation scheme         WeightScheme... mBecke (2022)
Basis function cutoff            BFCut       ... 1.0000e-11
Integration weight cutoff        WCut        ... 1.0000e-14
Partially contracted basis set               ... on
Rotationally invariant grid construction     ... off
Angular grids for H and He will be reduced by one unit
Diffuse basis detected: some atoms will have their outermost
                        angular grid increased by 1.

Total number of grid points                  ...   101566
Total number of batches                      ...      808
Average number of points per batch           ...      125
Average number of grid points per atom       ...     3386
UseSFitting                                  ... on
Initializing property integral containers    ... done (  0.0 sec)

SHARK setup successfully completed in   4.1 seconds

Maximum memory used throughout the entire STARTUP-calculation: 79.0 MB
[1739906771.541251] [ohm:400377:0]        ib_iface.c:1059 UCX  ERROR ibv_create_cq(cqe=256) failed: Connection timed out
[1739906771.543720] [ohm:400385:0]        ib_iface.c:1059 UCX  ERROR ibv_create_cq(cqe=256) failed: Connection timed out
[1739906771.545457] [ohm:400380:0]        ib_iface.c:1059 UCX  ERROR ibv_create_cq(cqe=256) failed: Connection timed out
[1739906771.561723] [ohm:400389:0]        ib_iface.c:1059 UCX  ERROR ibv_create_cq(cqe=256) failed: Connection timed out
[1739906771.584015] [ohm:400376:0]        ib_iface.c:1059 UCX  ERROR ibv_create_cq(cqe=256) failed: Connection timed out
[1739906771.584486] [ohm:400378:0]        ib_iface.c:1059 UCX  ERROR ibv_create_cq(cqe=256) failed: Connection timed out
[1739906771.591046] [ohm:400386:0]        ib_iface.c:1059 UCX  ERROR ibv_create_cq(cqe=256) failed: Connection timed out
[1739906771.592997] [ohm:400394:0]        ib_iface.c:1059 UCX  ERROR ibv_create_cq(cqe=256) failed: Connection timed out
[1739906771.642381] [ohm:400463:0]        ib_iface.c:1059 UCX  ERROR ibv_create_cq(cqe=256) failed: Connection timed out
[1739906771.649032] [ohm:400383:0]        ib_iface.c:1059 UCX  ERROR ibv_create_cq(cqe=256) failed: Connection timed out
[1739906771.662205] [ohm:400401:0]        ib_iface.c:1059 UCX  ERROR ibv_create_cq(cqe=256) failed: Connection timed out
[1739906771.671718] [ohm:400471:0]        ib_iface.c:1059 UCX  ERROR ibv_create_cq(cqe=256) failed: Connection timed out
[1739906771.678828] [ohm:400494:0]        ib_iface.c:1059 UCX  ERROR ibv_create_cq(cqe=256) failed: Connection timed out
[1739906771.686502] [ohm:400444:0]        ib_iface.c:1059 UCX  ERROR ibv_create_cq(cqe=256) failed: Connection timed out
[1739906771.689952] [ohm:400414:0]        ib_iface.c:1059 UCX  ERROR ibv_create_cq(cqe=256) failed: Connection timed out
[1739906771.690423] [ohm:400486:0]        ib_iface.c:1059 UCX  ERROR ibv_create_cq(cqe=256) failed: Connection timed out
[1739906771.691733] [ohm:400379:0]        ib_iface.c:1059 UCX  ERROR ibv_create_cq(cqe=256) failed: Connection timed out
[1739906771.693155] [ohm:400515:0]        ib_iface.c:1059 UCX  ERROR ibv_create_cq(cqe=256) failed: Connection timed out
[1739906771.697261] [ohm:400489:0]        ib_iface.c:1059 UCX  ERROR ibv_create_cq(cqe=256) failed: Connection timed out
[1739906771.713101] [ohm:400396:0]        ib_iface.c:1059 UCX  ERROR ibv_create_cq(cqe=256) failed: Connection timed out
[1739906771.734466] [ohm:400461:0]        ib_iface.c:1059 UCX  ERROR ibv_create_cq(cqe=256) failed: Connection timed out
[1739906771.769413] [ohm:400519:0]        ib_iface.c:1059 UCX  ERROR ibv_create_cq(cqe=256) failed: Connection timed out
[1739906771.770377] [ohm:400427:0]        ib_iface.c:1059 UCX  ERROR ibv_create_cq(cqe=256) failed: Connection timed out
[1739906771.790436] [ohm:400478:0]        ib_iface.c:1059 UCX  ERROR ibv_create_cq(cqe=256) failed: Connection timed out
[1739906771.793892] [ohm:400400:0]        ib_iface.c:1059 UCX  ERROR ibv_create_cq(cqe=256) failed: Connection timed out
[1739906771.794110] [ohm:400423:0]        ib_iface.c:1059 UCX  ERROR ibv_create_cq(cqe=256) failed: Connection timed out
[1739906771.795982] [ohm:400438:0]        ib_iface.c:1059 UCX  ERROR ibv_create_cq(cqe=256) failed: Connection timed out
[1739906771.799373] [ohm:400491:0]        ib_iface.c:1059 UCX  ERROR ibv_create_cq(cqe=256) failed: Connection timed out
[1739906771.800039] [ohm:400454:0]        ib_iface.c:1059 UCX  ERROR ibv_create_cq(cqe=256) failed: Connection timed out
[1739906771.802833] [ohm:400500:0]        ib_iface.c:1059 UCX  ERROR ibv_create_cq(cqe=256) failed: Connection timed out
[1739906771.804675] [ohm:400408:0]        ib_iface.c:1059 UCX  ERROR ibv_create_cq(cqe=256) failed: Connection timed out
[1739906771.808249] [ohm:400441:0]        ib_iface.c:1059 UCX  ERROR ibv_create_cq(cqe=256) failed: Connection timed out
[1739906771.817506] [ohm:400391:0]        ib_iface.c:1059 UCX  ERROR ibv_create_cq(cqe=256) failed: Connection timed out
[1739906771.818245] [ohm:400467:0]        ib_iface.c:1059 UCX  ERROR ibv_create_cq(cqe=256) failed: Connection timed out
[1739906771.818821] [ohm:400509:0]        ib_iface.c:1059 UCX  ERROR ibv_create_cq(cqe=256) failed: Connection timed out
[1739906771.819863] [ohm:400505:0]        ib_iface.c:1059 UCX  ERROR ibv_create_cq(cqe=256) failed: Connection timed out
[1739906771.828713] [ohm:400430:0]        ib_iface.c:1059 UCX  ERROR ibv_create_cq(cqe=256) failed: Connection timed out
[1739906771.832650] [ohm:400468:0]        ib_iface.c:1059 UCX  ERROR ibv_create_cq(cqe=256) failed: Connection timed out
[1739906771.835301] [ohm:400432:0]        ib_iface.c:1059 UCX  ERROR ibv_create_cq(cqe=256) failed: Connection timed out
[1739906771.842550] [ohm:400428:0]        ib_iface.c:1059 UCX  ERROR ibv_create_cq(cqe=256) failed: Connection timed out
[1739906771.850163] [ohm:400405:0]        ib_iface.c:1059 UCX  ERROR ibv_create_cq(cqe=256) failed: Connection timed out
[1739906771.855237] [ohm:400456:0]        ib_iface.c:1059 UCX  ERROR ibv_create_cq(cqe=256) failed: Connection timed out
[1739906771.866073] [ohm:400475:0]        ib_iface.c:1059 UCX  ERROR ibv_create_cq(cqe=256) failed: Connection timed out
[1739906771.867952] [ohm:400398:0]        ib_iface.c:1059 UCX  ERROR ibv_create_cq(cqe=256) failed: Connection timed out
[1739906771.870202] [ohm:400482:0]        ib_iface.c:1059 UCX  ERROR ibv_create_cq(cqe=256) failed: Connection timed out
[1739906771.874670] [ohm:400388:0]        ib_iface.c:1059 UCX  ERROR ibv_create_cq(cqe=256) failed: Connection timed out
[1739906771.875277] [ohm:400392:0]        ib_iface.c:1059 UCX  ERROR ibv_create_cq(cqe=256) failed: Connection timed out
[1739906771.881932] [ohm:400434:0]        ib_iface.c:1059 UCX  ERROR ibv_create_cq(cqe=256) failed: Connection timed out
[1739906771.883614] [ohm:400399:0]        ib_iface.c:1059 UCX  ERROR ibv_create_cq(cqe=256) failed: Connection timed out
[1739906771.885771] [ohm:400390:0]        ib_iface.c:1059 UCX  ERROR ibv_create_cq(cqe=256) failed: Connection timed out
[1739906771.891507] [ohm:400406:0]        ib_iface.c:1059 UCX  ERROR ibv_create_cq(cqe=256) failed: Connection timed out
[1739906771.893960] [ohm:400395:0]        ib_iface.c:1059 UCX  ERROR ibv_create_cq(cqe=256) failed: Connection timed out
[1739906771.896246] [ohm:400393:0]        ib_iface.c:1059 UCX  ERROR ibv_create_cq(cqe=256) failed: Connection timed out
[1739906771.897482] [ohm:400382:0]        ib_iface.c:1059 UCX  ERROR ibv_create_cq(cqe=256) failed: Connection timed out
[1739906771.899356] [ohm:400381:0]        ib_iface.c:1059 UCX  ERROR ibv_create_cq(cqe=256) failed: Connection timed out
[1739906771.900335] [ohm:400402:0]        ib_iface.c:1059 UCX  ERROR ibv_create_cq(cqe=256) failed: Connection timed out
[1739906771.902703] [ohm:400403:0]        ib_iface.c:1059 UCX  ERROR ibv_create_cq(cqe=256) failed: Connection timed out
[1739906771.902702] [ohm:400419:0]        ib_iface.c:1059 UCX  ERROR ibv_create_cq(cqe=256) failed: Connection timed out
[1739906771.903970] [ohm:400498:0]        ib_iface.c:1059 UCX  ERROR ibv_create_cq(cqe=256) failed: Connection timed out
[1739906771.904338] [ohm:400384:0]        ib_iface.c:1059 UCX  ERROR ibv_create_cq(cqe=256) failed: Connection timed out
[1739906771.904727] [ohm:400522:0]        ib_iface.c:1059 UCX  ERROR ibv_create_cq(cqe=256) failed: Connection timed out
[1739906771.905339] [ohm:400387:0]        ib_iface.c:1059 UCX  ERROR ibv_create_cq(cqe=256) failed: Connection timed out
[1739906771.907382] [ohm:400512:0]        ib_iface.c:1059 UCX  ERROR ibv_create_cq(cqe=256) failed: Connection timed out
[1739906771.907628] [ohm:400397:0]        ib_iface.c:1059 UCX  ERROR ibv_create_cq(cqe=256) failed: Connection timed out


           ************************************************************
           *        Program running with 64 parallel MPI-processes    *
           *              working on a common directory               *
           ************************************************************
-------------------------------------------------------------------------------
                                 ORCA GUESS
                   Start orbitals & Density for SCF / CASSCF
-------------------------------------------------------------------------------

------------
SCF SETTINGS
------------
Hamiltonian:
 Density Functional     Method          .... DFT(GTOs)
  Functional kind                       .... Exchange-Correlation
  Functional name                       .... wB97M-V exchange-correlation functional
  Functional family                     .... Hybrid MGGA
  Functional refs                              
    [ 0] N. Mardirossian and M. Head-Gordon.,  J. Chem. Phys. 144, 214110 (2016), doi: 10.1063/1.4952647
  Fraction of HF Exchange (short range) .... 0.1500
  Fraction of HF Exchange (long range)  .... 1.0000
  Range separation parameter mu         .... 0.3000
  Functional external parameters        .... 17
    Parameter  0 _cx00      =  8.500000e-01 : u^00 coefficient for exchange
    Parameter  1 _cx01      =  1.007000e+00 : u^01 coefficient for exchange
    Parameter  2 _cx10      =  2.590000e-01 : u^10 coefficient for exchange
    Parameter  3 _css00     =  4.430000e-01 : u^00 coefficient for same-spin correlation
    Parameter  4 _css04     = -1.437000e+00 : u^04 coefficient for same-spin correlation
    Parameter  5 _css10     = -4.535000e+00 : u^10 coefficient for same-spin correlation
    Parameter  6 _css20     = -3.390000e+00 : u^20 coefficient for same-spin correlation
    Parameter  7 _css43     =  4.278000e+00 : u^43 coefficient for same-spin correlation
    Parameter  8 _cos00     =  1.000000e+00 : u^00 coefficient for opposite-spin correlation
    Parameter  9 _cos10     =  1.358000e+00 : u^10 coefficient for opposite-spin correlation
    Parameter 10 _cos20     =  2.924000e+00 : u^20 coefficient for opposite-spin correlation
    Parameter 11 _cos21     = -8.812000e+00 : u^21 coefficient for opposite-spin correlation
    Parameter 12 _cos60     = -1.390000e+00 : u^60 coefficient for opposite-spin correlation
    Parameter 13 _cos61     =  9.142000e+00 : u^61 coefficient for opposite-spin correlation
    Parameter 14 _alpha     =  1.000000e+00 : fraction of HF exchange
    Parameter 15 _beta      = -8.500000e-01 : fraction of short-range exchange
    Parameter 16 _omega     =  3.000000e-01 : range-separation constant
 Long-range corrected/Screened/Range-Separated Hybrid DFT is turned on
   Amount of maximum screened exact exchange              ....  0.850000
   Range separation parameter mu (erf(mu*r12)/r12)        ....  0.300000
 RI-approximation to the Coulomb term is turned on
   Number of AuxJ basis functions       .... 1014
   RIJ-COSX (HFX calculated with COS-X)).... on


General Settings:
 Integral files         IntName         .... orca
 Hartree-Fock type      HFTyp           .... UHF
 Total Charge           Charge          ....    0
 Multiplicity           Mult            ....    3
 Number of Electrons    NEL             ....  132
 Basis Dimension        Dim             ....  882
 Nuclear Repulsion      ENuc            ....   1401.3660537487 Eh

Convergence Acceleration:
 AO-DIIS                CNVDIIS         .... on
   Start iteration      DIISMaxIt       ....    12
   Startup error        DIISStart       ....  0.200000
   # of expansion vecs  DIISMaxEq       ....     5
   Bias factor          DIISBfac        ....   1.050
   Max. coefficient     DIISMaxC        ....  10.000
 MO-DIIS                CNVKDIIS        .... off
 Trust-Rad. Augm. Hess. CNVTRAH         .... auto
   Auto Start mean grad. ratio tolernc. ....  1.125000
   Auto Start start iteration           ....    50
   Auto Start num. interpolation iter.  ....    10
   Max. Number of Micro iterations      ....    24
   Max. Number of Macro iterations      .... Maxiter - #DIIS iter
   Number of Davidson start vectors     ....     2
   Converg. threshold    (grad. norm)   ....   1.000e-05
   Grad. Scal. Fac. for Micro threshold ....   0.100
   Minimum threshold for Micro iter.    ....   1.000e-02
   NR start threshold (gradient norm)   ....   1.000e-04
   Initial trust radius                 ....   0.400
   Minimum AH scaling param. (alpha)    ....   1.000
   Maximum AH scaling param. (alpha)    .... 1000.000
   Quad. conv. algorithm                .... NR
   White noise on init. David. guess    .... on
   Maximum white noise                  ....   0.010
   Pseudo random numbers                .... off
   Inactive MOs                         .... canonical
   Orbital update algorithm             .... Taylor
   Preconditioner                       .... Diag
   Full preconditioner red. dimension   ....   250
 SOSCF                  CNVSOSCF        .... on
   Start iteration      SOSCFMaxIt      ....   150
   Startup grad/error   SOSCFStart      ....  0.003300
   Hessian update       SOSCFHessUp     .... L-BFGS
 Level Shifting         CNVShift        .... on
   Level shift para.    LevelShift      ....    0.2500
   Turn off err/grad.   ShiftErr        ....    0.0010
 Zerner damping         CNVZerner       .... off
 Static damping         CNVDamp         .... on
   Fraction old density DampFac         ....    0.7000
   Max. Damping (<1)    DampMax         ....    0.9800
   Min. Damping (>=0)   DampMin         ....    0.0000
   Turn off err/grad.   DampErr         ....    0.1000

SCF Procedure:
 Maximum # iterations   MaxIter         ....   125
 SCF integral mode      SCFMode         .... Direct
   Integral package                     .... SHARK and LIBINT hybrid scheme
 Reset frequency        DirectResetFreq ....    20
 Integral Threshold     Thresh          ....  1.000e-12 Eh
 Primitive CutOff       TCut            ....  1.000e-13 Eh

Convergence Tolerance:
 Convergence Check Mode ConvCheckMode   .... Total+1el-Energy
 Convergence forced     ConvForced      .... 1
 Energy Change          TolE            ....  1.000e-08 Eh
 1-El. energy change                    ....  1.000e-05 Eh
 Orbital Gradient       TolG            ....  1.000e-05
 Orbital Rotation angle TolX            ....  1.000e-05
 DIIS Error             TolErr          ....  5.000e-07

------------------------------
INITIAL GUESS: MODEL POTENTIAL
------------------------------
Loading Hartree-Fock densities                     ... done
Calculating cut-offs                               ... done
Initializing the effective Hamiltonian             ... done
Setting up the integral package (SHARK)            ... done
Starting the Coulomb interaction                   ... done (   0.1 sec)
Making the grid                                    ... done (   0.2 sec)
Mapping shells                                     ... done
Starting the XC term evaluation                    ... done (   0.1 sec)
  promolecular density results
     # of electrons  =    131.994888873
     EX              =   -113.423843534
     EC              =     -4.459133772
     EX+EC           =   -117.882977306
Transforming the Hamiltonian                       ... done (   0.1 sec)
Diagonalizing the Hamiltonian                      ... done (   0.1 sec)
Back transforming the eigenvectors                 ... done (   0.2 sec)
Now organizing SCF variables                       ... done
                      ------------------
                      INITIAL GUESS DONE (   1.1 sec)
                      ------------------
             **** ENERGY FILE WAS UPDATED (orca.en.tmp) ****
Finished Guess after   3.5 sec
Maximum memory used throughout the entire GUESS-calculation: 71.3 MB
[1739906775.675596] [ohm:400727:0]        ib_iface.c:1059 UCX  ERROR ibv_create_cq(cqe=256) failed: Connection timed out
[1739906775.686675] [ohm:400734:0]        ib_iface.c:1059 UCX  ERROR ibv_create_cq(cqe=256) failed: Connection timed out
[1739906775.690781] [ohm:400731:0]        ib_iface.c:1059 UCX  ERROR ibv_create_cq(cqe=256) failed: Connection timed out
[1739906775.693679] [ohm:400730:0]        ib_iface.c:1059 UCX  ERROR ibv_create_cq(cqe=256) failed: Connection timed out
[1739906775.697934] [ohm:400743:0]        ib_iface.c:1059 UCX  ERROR ibv_create_cq(cqe=256) failed: Connection timed out
[1739906775.702827] [ohm:400729:0]        ib_iface.c:1059 UCX  ERROR ibv_create_cq(cqe=256) failed: Connection timed out
[1739906775.707618] [ohm:400733:0]        ib_iface.c:1059 UCX  ERROR ibv_create_cq(cqe=256) failed: Connection timed out
[1739906775.751119] [ohm:400773:0]        ib_iface.c:1059 UCX  ERROR ibv_create_cq(cqe=256) failed: Connection timed out
[1739906775.757522] [ohm:400749:0]        ib_iface.c:1059 UCX  ERROR ibv_create_cq(cqe=256) failed: Connection timed out
[1739906775.762480] [ohm:400763:0]        ib_iface.c:1059 UCX  ERROR ibv_create_cq(cqe=256) failed: Connection timed out
[1739906775.763314] [ohm:400772:0]        ib_iface.c:1059 UCX  ERROR ibv_create_cq(cqe=256) failed: Connection timed out
[1739906775.764031] [ohm:400728:0]        ib_iface.c:1059 UCX  ERROR ibv_create_cq(cqe=256) failed: Connection timed out
[1739906775.770796] [ohm:400751:0]        ib_iface.c:1059 UCX  ERROR ibv_create_cq(cqe=256) failed: Connection timed out
[1739906775.776377] [ohm:400750:0]        ib_iface.c:1059 UCX  ERROR ibv_create_cq(cqe=256) failed: Connection timed out
[1739906775.784165] [ohm:400747:0]        ib_iface.c:1059 UCX  ERROR ibv_create_cq(cqe=256) failed: Connection timed out
[1739906775.798651] [ohm:400783:0]        ib_iface.c:1059 UCX  ERROR ibv_create_cq(cqe=256) failed: Connection timed out
[1739906775.800489] [ohm:400777:0]        ib_iface.c:1059 UCX  ERROR ibv_create_cq(cqe=256) failed: Connection timed out
[1739906775.806026] [ohm:400775:0]        ib_iface.c:1059 UCX  ERROR ibv_create_cq(cqe=256) failed: Connection timed out
[1739906775.807898] [ohm:400799:0]        ib_iface.c:1059 UCX  ERROR ibv_create_cq(cqe=256) failed: Connection timed out
[1739906775.809361] [ohm:400767:0]        ib_iface.c:1059 UCX  ERROR ibv_create_cq(cqe=256) failed: Connection timed out
[1739906775.846875] [ohm:400792:0]        ib_iface.c:1059 UCX  ERROR ibv_create_cq(cqe=256) failed: Connection timed out
[1739906775.851474] [ohm:400780:0]        ib_iface.c:1059 UCX  ERROR ibv_create_cq(cqe=256) failed: Connection timed out
[1739906775.863850] [ohm:400776:0]        ib_iface.c:1059 UCX  ERROR ibv_create_cq(cqe=256) failed: Connection timed out
[1739906775.889220] [ohm:400758:0]        ib_iface.c:1059 UCX  ERROR ibv_create_cq(cqe=256) failed: Connection timed out
[1739906775.899061] [ohm:400802:0]        ib_iface.c:1059 UCX  ERROR ibv_create_cq(cqe=256) failed: Connection timed out
[1739906775.899058] [ohm:400821:0]        ib_iface.c:1059 UCX  ERROR ibv_create_cq(cqe=256) failed: Connection timed out
[1739906775.906588] [ohm:400809:0]        ib_iface.c:1059 UCX  ERROR ibv_create_cq(cqe=256) failed: Connection timed out
[1739906775.918467] [ohm:400859:0]        ib_iface.c:1059 UCX  ERROR ibv_create_cq(cqe=256) failed: Connection timed out
[1739906775.920663] [ohm:400742:0]        ib_iface.c:1059 UCX  ERROR ibv_create_cq(cqe=256) failed: Connection timed out
[1739906775.925332] [ohm:400761:0]        ib_iface.c:1059 UCX  ERROR ibv_create_cq(cqe=256) failed: Connection timed out
[1739906775.929906] [ohm:400819:0]        ib_iface.c:1059 UCX  ERROR ibv_create_cq(cqe=256) failed: Connection timed out
[1739906775.930697] [ohm:400814:0]        ib_iface.c:1059 UCX  ERROR ibv_create_cq(cqe=256) failed: Connection timed out
[1739906775.931298] [ohm:400748:0]        ib_iface.c:1059 UCX  ERROR ibv_create_cq(cqe=256) failed: Connection timed out
[1739906775.935004] [ohm:400774:0]        ib_iface.c:1059 UCX  ERROR ibv_create_cq(cqe=256) failed: Connection timed out
[1739906775.941995] [ohm:400744:0]        ib_iface.c:1059 UCX  ERROR ibv_create_cq(cqe=256) failed: Connection timed out
[1739906775.942946] [ohm:400867:0]        ib_iface.c:1059 UCX  ERROR ibv_create_cq(cqe=256) failed: Connection timed out
[1739906775.951726] [ohm:400753:0]        ib_iface.c:1059 UCX  ERROR ibv_create_cq(cqe=256) failed: Connection timed out
[1739906775.951707] [ohm:400832:0]        ib_iface.c:1059 UCX  ERROR ibv_create_cq(cqe=256) failed: Connection timed out
[1739906775.953152] [ohm:400771:0]        ib_iface.c:1059 UCX  ERROR ibv_create_cq(cqe=256) failed: Connection timed out
[1739906775.958415] [ohm:400770:0]        ib_iface.c:1059 UCX  ERROR ibv_create_cq(cqe=256) failed: Connection timed out
[1739906775.960937] [ohm:400807:0]        ib_iface.c:1059 UCX  ERROR ibv_create_cq(cqe=256) failed: Connection timed out
[1739906775.966582] [ohm:400732:0]        ib_iface.c:1059 UCX  ERROR ibv_create_cq(cqe=256) failed: Connection timed out
[1739906775.968170] [ohm:400838:0]        ib_iface.c:1059 UCX  ERROR ibv_create_cq(cqe=256) failed: Connection timed out
[1739906775.968577] [ohm:400756:0]        ib_iface.c:1059 UCX  ERROR ibv_create_cq(cqe=256) failed: Connection timed out
[1739906775.979078] [ohm:400844:0]        ib_iface.c:1059 UCX  ERROR ibv_create_cq(cqe=256) failed: Connection timed out
[1739906775.979642] [ohm:400840:0]        ib_iface.c:1059 UCX  ERROR ibv_create_cq(cqe=256) failed: Connection timed out
[1739906775.981985] [ohm:400765:0]        ib_iface.c:1059 UCX  ERROR ibv_create_cq(cqe=256) failed: Connection timed out
[1739906775.983376] [ohm:400857:0]        ib_iface.c:1059 UCX  ERROR ibv_create_cq(cqe=256) failed: Connection timed out
[1739906775.990480] [ohm:400740:0]        ib_iface.c:1059 UCX  ERROR ibv_create_cq(cqe=256) failed: Connection timed out
[1739906775.993350] [ohm:400784:0]        ib_iface.c:1059 UCX  ERROR ibv_create_cq(cqe=256) failed: Connection timed out
[1739906775.998058] [ohm:400862:0]        ib_iface.c:1059 UCX  ERROR ibv_create_cq(cqe=256) failed: Connection timed out
[1739906775.998897] [ohm:400813:0]        ib_iface.c:1059 UCX  ERROR ibv_create_cq(cqe=256) failed: Connection timed out
[1739906775.999924] [ohm:400766:0]        ib_iface.c:1059 UCX  ERROR ibv_create_cq(cqe=256) failed: Connection timed out
[1739906776.000099] [ohm:400826:0]        ib_iface.c:1059 UCX  ERROR ibv_create_cq(cqe=256) failed: Connection timed out
[1739906776.001586] [ohm:400793:0]        ib_iface.c:1059 UCX  ERROR ibv_create_cq(cqe=256) failed: Connection timed out
[1739906776.001757] [ohm:400853:0]        ib_iface.c:1059 UCX  ERROR ibv_create_cq(cqe=256) failed: Connection timed out
[1739906776.003372] [ohm:400847:0]        ib_iface.c:1059 UCX  ERROR ibv_create_cq(cqe=256) failed: Connection timed out
[1739906776.003828] [ohm:400834:0]        ib_iface.c:1059 UCX  ERROR ibv_create_cq(cqe=256) failed: Connection timed out
[1739906776.004595] [ohm:400864:0]        ib_iface.c:1059 UCX  ERROR ibv_create_cq(cqe=256) failed: Connection timed out
[1739906776.013237] [ohm:400768:0]        ib_iface.c:1059 UCX  ERROR ibv_create_cq(cqe=256) failed: Connection timed out
[1739906776.014497] [ohm:400875:0]        ib_iface.c:1059 UCX  ERROR ibv_create_cq(cqe=256) failed: Connection timed out
[1739906776.015331] [ohm:400871:0]        ib_iface.c:1059 UCX  ERROR ibv_create_cq(cqe=256) failed: Connection timed out
[1739906776.015736] [ohm:400851:0]        ib_iface.c:1059 UCX  ERROR ibv_create_cq(cqe=256) failed: Connection timed out
[1739906776.025080] [ohm:400769:0]        ib_iface.c:1059 UCX  ERROR ibv_create_cq(cqe=256) failed: Connection timed out


           ************************************************************
           *        Program running with 64 parallel MPI-processes    *
           *              working on a common directory               *
           ************************************************************

-------------------------------------------------------------------------------------------
                                      ORCA LEAN-SCF
                              memory conserving SCF solver
-------------------------------------------------------------------------------------------

----------------------------------------D-I-I-S--------------------------------------------
Iteration    Energy (Eh)           Delta-E    RMSDP     MaxDP     DIISErr   Damp  Time(sec)
-------------------------------------------------------------------------------------------
               ***  Starting incremental Fock matrix formation  ***
    1    -908.0425853688798270     0.00e+00  1.89e-03  5.67e-01  1.46e-01  0.700   7.6
    2    -908.3061507186689596    -2.64e-01  1.45e-03  4.34e-01  6.86e-02  0.700   6.2
                               ***Turning on AO-DIIS***
    3    -908.4201285984272545    -1.14e-01  9.84e-04  2.85e-01  2.75e-02  0.700   5.5
    4    -908.4905607411624260    -7.04e-02  2.15e-03  6.17e-01  1.78e-02  0.000   5.4
    5    -908.6490959491015929    -1.59e-01  1.94e-04  5.31e-02  4.93e-03  0.000   5.6
    6    -908.6502765685377199    -1.18e-03  8.09e-05  2.23e-02  3.87e-03  0.000   5.3
                              *** Initializing SOSCF ***
---------------------------------------S-O-S-C-F--------------------------------------
Iteration    Energy (Eh)           Delta-E    RMSDP     MaxDP     MaxGrad    Time(sec)
--------------------------------------------------------------------------------------
    7    -908.6507675367392949    -4.91e-04  7.07e-05  2.17e-02  2.53e-03     6.2
               *** Restarting incremental Fock matrix formation ***
    8    -908.6510360566730924    -2.69e-04  1.88e-04  1.82e-02  1.42e-03     7.3
    9    -908.6511244410266954    -8.84e-05  1.14e-04  1.23e-02  9.85e-04     6.4
   10    -908.6511644851611891    -4.00e-05  9.59e-05  8.18e-03  3.11e-04     6.4
   11    -908.6511718154147275    -7.33e-06  1.33e-05  2.32e-03  2.70e-04     6.3
   12    -908.6511733215434106    -1.51e-06  1.39e-05  1.21e-03  6.49e-05     6.0
   13    -908.6511739988841327    -6.77e-07  1.49e-06  1.89e-04  3.83e-05     5.9
   14    -908.6511741878753128    -1.89e-07  3.27e-06  5.67e-04  2.54e-05     5.5
   15    -908.6511742362508812    -4.84e-08  7.76e-07  1.24e-04  1.86e-05     5.6
   16    -908.6511743018472771    -6.56e-08  9.24e-07  1.33e-04  6.24e-06     5.2
   17    -908.6511742955035515     6.34e-09  9.17e-07  2.75e-04  1.98e-06     5.3
                 **** Energy Check signals convergence ****

               *****************************************************
               *                     SUCCESS                       *
               *           SCF CONVERGED AFTER  17 CYCLES          *
               *****************************************************

Recomputing exchange energy using gridx3       ... done (    7.689 sec)
Old exchange energy                            :    -34.986278661 Eh
New exchange energy                            :    -34.986277330 Eh
Exchange energy change after final integration :      0.000001331 Eh
Total energy after final integration           :   -908.651172964 Eh
             **** ENERGY FILE WAS UPDATED (orca.en.tmp) ****

----------------
TOTAL SCF ENERGY
----------------

Total Energy       :       -908.65117296447193 Eh          -24725.65544 eV

Components:
Nuclear Repulsion  :       1401.36605374868122 Eh           38133.10897 eV
Electronic Energy  :      -2310.01722804418478 Eh          -62858.76445 eV
One Electron Energy:      -4020.29595124126990 Eh         -109397.81451 eV
Two Electron Energy:       1710.27872319708513 Eh           46539.05006 eV

Virial components:
Potential Energy   :      -1813.50497728469236 Eh          -49347.97923 eV
Kinetic Energy     :        904.85380432022043 Eh           24622.32379 eV
Virial Ratio       :          2.00419666539072

DFT components:
N(Alpha)           :       66.999870300402 electrons
N(Beta)            :       64.999875891024 electrons
N(Total)           :      131.999746191425 electrons
E(XC)              :      -86.069457520850 Eh       

---------------
SCF CONVERGENCE
---------------

  Last Energy change         ...   -6.3437e-09  Tolerance :   1.0000e-08
  Last MAX-Density change    ...    2.7485e-04  Tolerance :   1.0000e-07
  Last RMS-Density change    ...    9.1708e-07  Tolerance :   5.0000e-09
  Last DIIS Error            ...    2.5265e-03  Tolerance :   5.0000e-07
  Last Orbital Gradient      ...    1.9765e-06  Tolerance :   1.0000e-05
  Last Orbital Rotation      ...    6.5932e-06  Tolerance :   1.0000e-05


----------------------
UHF SPIN CONTAMINATION
----------------------

Warning: in a DFT calculation there is little theoretical justification to 
         calculate <S**2> as in Hartree-Fock theory. We will do it anyways
         but you should keep in mind that the values have only limited relevance

Expectation value of <S**2>     :     2.014137
Ideal value S*(S+1) for S=1.0   :     2.000000
Deviation                       :     0.014137

----------------
ORBITAL ENERGIES
----------------
                 SPIN UP ORBITALS
  NO   OCC          E(Eh)            E(eV) 
   0   1.0000     -19.343742      -526.3700 
   1   1.0000     -19.324113      -525.8359 
   2   1.0000     -19.323016      -525.8060 
   3   1.0000     -19.318257      -525.6765 
   4   1.0000     -14.575604      -396.6224 
   5   1.0000     -14.562489      -396.2655 
   6   1.0000     -14.559199      -396.1760 
   7   1.0000     -14.558270      -396.1507 
   8   1.0000     -10.512328      -286.0550 
   9   1.0000     -10.503401      -285.8121 
  10   1.0000     -10.498520      -285.6793 
  11   1.0000     -10.488525      -285.4073 
  12   1.0000     -10.448195      -284.3098 
  13   1.0000     -10.434082      -283.9258 
  14   1.0000     -10.422878      -283.6209 
  15   1.0000     -10.415360      -283.4163 
  16   1.0000     -10.399309      -282.9796 
  17   1.0000     -10.381558      -282.4966 
  18   1.0000      -1.214968       -33.0610 
  19   1.0000      -1.206204       -32.8225 
  20   1.0000      -1.197941       -32.5976 
  21   1.0000      -1.172853       -31.9149 
  22   1.0000      -1.117971       -30.4215 
  23   1.0000      -1.077273       -29.3141 
  24   1.0000      -1.059764       -28.8376 
  25   1.0000      -1.048759       -28.5382 
  26   1.0000      -1.008038       -27.4301 
  27   1.0000      -0.939538       -25.5661 
  28   1.0000      -0.869645       -23.6643 
  29   1.0000      -0.838943       -22.8288 
  30   1.0000      -0.819224       -22.2922 
  31   1.0000      -0.803079       -21.8529 
  32   1.0000      -0.776831       -21.1387 
  33   1.0000      -0.757884       -20.6231 
  34   1.0000      -0.716342       -19.4926 
  35   1.0000      -0.692891       -18.8545 
  36   1.0000      -0.682693       -18.5770 
  37   1.0000      -0.668012       -18.1775 
  38   1.0000      -0.635377       -17.2895 
  39   1.0000      -0.619187       -16.8489 
  40   1.0000      -0.607763       -16.5381 
  41   1.0000      -0.605632       -16.4801 
  42   1.0000      -0.598084       -16.2747 
  43   1.0000      -0.586628       -15.9630 
  44   1.0000      -0.575566       -15.6619 
  45   1.0000      -0.571149       -15.5418 
  46   1.0000      -0.568026       -15.4568 
  47   1.0000      -0.559202       -15.2166 
  48   1.0000      -0.552650       -15.0384 
  49   1.0000      -0.544581       -14.8188 
  50   1.0000      -0.541398       -14.7322 
  51   1.0000      -0.538193       -14.6450 
  52   1.0000      -0.521389       -14.1877 
  53   1.0000      -0.514815       -14.0088 
  54   1.0000      -0.506123       -13.7723 
  55   1.0000      -0.490043       -13.3347 
  56   1.0000      -0.437863       -11.9149 
  57   1.0000      -0.421101       -11.4588 
  58   1.0000      -0.416085       -11.3222 
  59   1.0000      -0.410029       -11.1575 
  60   1.0000      -0.401985       -10.9386 
  61   1.0000      -0.386175       -10.5084 
  62   1.0000      -0.385278       -10.4840 
  63   1.0000      -0.377992       -10.2857 
  64   1.0000      -0.370779       -10.0894 
  65   1.0000      -0.349911        -9.5216 
  66   1.0000      -0.332709        -9.0535 
  67   0.0000       0.006693         0.1821 
  68   0.0000       0.025229         0.6865 
  69   0.0000       0.029630         0.8063 
  70   0.0000       0.036532         0.9941 
  71   0.0000       0.042078         1.1450 
  72   0.0000       0.052684         1.4336 
  73   0.0000       0.057256         1.5580 
  74   0.0000       0.058631         1.5954 
  75   0.0000       0.064831         1.7641 
  76   0.0000       0.065994         1.7958 
  77   0.0000       0.073021         1.9870 

                 SPIN DOWN ORBITALS
  NO   OCC          E(Eh)            E(eV) 
   0   1.0000     -19.336970      -526.1857 
   1   1.0000     -19.324097      -525.8354 
   2   1.0000     -19.323015      -525.8060 
   3   1.0000     -19.318281      -525.6772 
   4   1.0000     -14.575577      -396.6216 
   5   1.0000     -14.562488      -396.2655 
   6   1.0000     -14.558627      -396.1604 
   7   1.0000     -14.557620      -396.1330 
   8   1.0000     -10.512327      -286.0550 
   9   1.0000     -10.503383      -285.8116 
  10   1.0000     -10.500004      -285.7196 
  11   1.0000     -10.488529      -285.4074 
  12   1.0000     -10.448164      -284.3090 
  13   1.0000     -10.434055      -283.9251 
  14   1.0000     -10.422840      -283.6199 
  15   1.0000     -10.400380      -283.0087 
  16   1.0000     -10.390092      -282.7288 
  17   1.0000     -10.381552      -282.4964 
  18   1.0000      -1.213529       -33.0218 
  19   1.0000      -1.205958       -32.8158 
  20   1.0000      -1.188189       -32.3323 
  21   1.0000      -1.172833       -31.9144 
  22   1.0000      -1.117814       -30.4173 
  23   1.0000      -1.075547       -29.2671 
  24   1.0000      -1.057933       -28.7878 
  25   1.0000      -1.048407       -28.5286 
  26   1.0000      -1.007676       -27.4203 
  27   1.0000      -0.910136       -24.7661 
  28   1.0000      -0.869572       -23.6623 
  29   1.0000      -0.820656       -22.3312 
  30   1.0000      -0.817509       -22.2456 
  31   1.0000      -0.802620       -21.8404 
  32   1.0000      -0.775611       -21.1054 
  33   1.0000      -0.754819       -20.5397 
  34   1.0000      -0.712661       -19.3925 
  35   1.0000      -0.692586       -18.8462 
  36   1.0000      -0.672367       -18.2960 
  37   1.0000      -0.667222       -18.1560 
  38   1.0000      -0.629593       -17.1321 
  39   1.0000      -0.609430       -16.5834 
  40   1.0000      -0.605186       -16.4680 
  41   1.0000      -0.601511       -16.3679 
  42   1.0000      -0.591458       -16.0944 
  43   1.0000      -0.572759       -15.5856 
  44   1.0000      -0.565412       -15.3856 
  45   1.0000      -0.561230       -15.2719 
  46   1.0000      -0.557734       -15.1767 
  47   1.0000      -0.555766       -15.1232 
  48   1.0000      -0.548904       -14.9364 
  49   1.0000      -0.544215       -14.8088 
  50   1.0000      -0.540333       -14.7032 
  51   1.0000      -0.531243       -14.4559 
  52   1.0000      -0.514518       -14.0007 
  53   1.0000      -0.509347       -13.8600 
  54   1.0000      -0.505866       -13.7653 
  55   1.0000      -0.489150       -13.3105 
  56   1.0000      -0.426080       -11.5942 
  57   1.0000      -0.420376       -11.4390 
  58   1.0000      -0.415127       -11.2962 
  59   1.0000      -0.399193       -10.8626 
  60   1.0000      -0.391330       -10.6486 
  61   1.0000      -0.384382       -10.4596 
  62   1.0000      -0.382986       -10.4216 
  63   1.0000      -0.373124       -10.1532 
  64   1.0000      -0.369118       -10.0442 
  65   0.0000      -0.043197        -1.1755 
  66   0.0000       0.000924         0.0251 
  67   0.0000       0.007424         0.2020 
  68   0.0000       0.025251         0.6871 
  69   0.0000       0.030676         0.8347 
  70   0.0000       0.037263         1.0140 
  71   0.0000       0.043615         1.1868 
  72   0.0000       0.052733         1.4349 
  73   0.0000       0.057889         1.5752 
  74   0.0000       0.059719         1.6250 
  75   0.0000       0.064987         1.7684 
*Only the first 10 virtual orbitals were printed.

                    ********************************
                    * MULLIKEN POPULATION ANALYSIS *
                    ********************************

--------------------------------------------
MULLIKEN ATOMIC CHARGES AND SPIN POPULATIONS
--------------------------------------------
   0 O :   -0.695571    0.001000
   1 O :   -0.599886    0.222856
   2 O :   -0.655438    0.000009
   3 O :   -0.646586   -0.000501
   4 N :   -0.137030    0.000895
   5 N :   -0.070322    0.044087
   6 N :    0.024930    0.000303
   7 N :    0.117603    0.035676
   8 C :    1.608793   -0.002703
   9 C :    0.031432    1.385993
  10 C :   -0.095885    0.009683
  11 C :   -0.611408    0.003797
  12 C :   -1.572072   -0.004469
  13 C :   -1.056960    0.009150
  14 C :   -0.041331   -0.002701
  15 C :    0.784216    0.184888
  16 C :    0.431058    0.000254
  17 C :    0.479704   -0.003357
  18 H :    0.326779   -0.000852
  19 H :    0.265361   -0.035783
  20 H :    0.258112    0.004126
  21 H :    0.350373   -0.000369
  22 H :    0.373354   -0.000273
  23 H :    0.279493    0.041456
  24 H :    0.206827    0.046986
  25 H :    0.338749    0.057299
  26 H :    0.085975   -0.000011
  27 H :    0.132100    0.002657
  28 H :    0.056171   -0.000046
  29 H :    0.031460   -0.000051
Sum of atomic charges         :    0.0000000
Sum of atomic spin populations:    2.0000000

-----------------------------------------------------
MULLIKEN REDUCED ORBITAL CHARGES AND SPIN POPULATIONS
-----------------------------------------------------
CHARGE
  0 O s       :     4.102416  s :     4.102416
      pz      :     1.405124  p :     4.564009
      px      :     1.377552
      py      :     1.781333
      dz2     :     0.008429  d :     0.027364
      dxz     :     0.008418
      dyz     :     0.004196
      dx2y2   :     0.006103
      dxy     :     0.000218
      f0      :     0.000317  f :     0.001781
      f+1     :     0.000388
      f-1     :     0.000237
      f+2     :     0.000350
      f-2     :     0.000295
      f+3     :     0.000109
      f-3     :     0.000084

  1 O s       :     4.085339  s :     4.085339
      pz      :     1.482112  p :     4.482179
[...]
[1739907032.683654] [ohm:403107:0]        ib_iface.c:1059 UCX  ERROR ibv_create_cq(cqe=256) failed: Connection timed out
[1739907032.685556] [ohm:403113:0]        ib_iface.c:1059 UCX  ERROR ibv_create_cq(cqe=256) failed: Connection timed out
[1739907032.685907] [ohm:403135:0]        ib_iface.c:1059 UCX  ERROR ibv_create_cq(cqe=256) failed: Connection timed out
[1739907032.685990] [ohm:403021:0]        ib_iface.c:1059 UCX  ERROR ibv_create_cq(cqe=256) failed: Connection timed out
[1739907032.686529] [ohm:403012:0]        ib_iface.c:1059 UCX  ERROR ibv_create_cq(cqe=256) failed: Connection timed out
[1739907032.688301] [ohm:403013:0]        ib_iface.c:1059 UCX  ERROR ibv_create_cq(cqe=256) failed: Connection timed out
[1739907032.689443] [ohm:403059:0]        ib_iface.c:1059 UCX  ERROR ibv_create_cq(cqe=256) failed: Connection timed out
[1739907032.691132] [ohm:403029:0]        ib_iface.c:1059 UCX  ERROR ibv_create_cq(cqe=256) failed: Connection timed out
[1739907032.692480] [ohm:403020:0]        ib_iface.c:1059 UCX  ERROR ibv_create_cq(cqe=256) failed: Connection timed out
[1739907032.693032] [ohm:403091:0]        ib_iface.c:1059 UCX  ERROR ibv_create_cq(cqe=256) failed: Connection timed out
[1739907032.694491] [ohm:403101:0]        ib_iface.c:1059 UCX  ERROR ibv_create_cq(cqe=256) failed: Connection timed out


           ************************************************************
           *        Program running with 64 parallel MPI-processes    *
           *              working on a common directory               *
           ************************************************************

------------------------------------------------------------------------------
                              ORCA PROPERTY CALCULATIONS
------------------------------------------------------------------------------

GBWName                                 ... orca.gbw
Number of atoms                         ...     30
Number of basis functions               ...    882
Max core memory                         ...   1024 MB

Electric properties:
Dipole moment                           ... YES
Quadrupole moment                       ...  NO
Static polarizability (Dipole/Dipole)   ...  NO
Static polarizability (Dipole/Quad.)    ...  NO
Static polarizability (Quad./Quad.)     ...  NO
Static polarizability (Velocity)        ...  NO

Atomic electric properties:
Dipole moment                           ...  NO
Quadrupole moment                       ...  NO
Static polarizability                   ...  NO

Choice of electric origin               ... Center of mass
Position of electric origin             ...     0.150760     0.001199     0.035710

General magnetic properties:
Magnetizability                         ...  NO

EPR properties:
g-Tensor (aka g-matrix)                 ...  NO
Zero-Field splitting spin-orbit         ...  NO
Zero-field splitting spin-spin          ...  NO
Hyperfine couplings                     ...  NO (   0 nuclei)
Quadrupole couplings                    ...  NO (   0 nuclei)
Contact density                         ...  NO (   0 nuclei)

NMR properties:
Chemical shifts                         ...  NO (   0 nuclei)
Spin-rotation constants                 ...  NO (   0 nuclei)
Spin-spin couplings                     ...  NO (   0 nuclei,    0 pairs)

Choice of magnetic origin               ... GIAO
Position of magnetic origin             ...     0.000000     0.000000     0.000000

Properties with geometric perturbations:
SCF Hessian                             ...  NO
IR spectrum                             ...  NO
VCD spectrum                            ...  NO
X-ray spectroscopy properties:
SCF XES/XAS/RIXS spectra                ...  NO


-------------
DIPOLE MOMENT
-------------

Method             : SCF
Type of density    : Electron Density
Multiplicity       :   3
Irrep              :   0
Energy             :  -908.6511729644719253 Eh
Relativity type    : 
Basis              : AO
                                X                 Y                 Z
Electronic contribution:     -2.037180518     -10.122397254      -7.727975251
Nuclear contribution   :      1.701855055      11.599480131      10.731650455
                        -----------------------------------------
Total Dipole Moment    :     -0.335325464       1.477082877       3.003675204
                        -----------------------------------------
Magnitude (a.u.)       :      3.363968151
Magnitude (Debye)      :      8.550527519



--------------------
Rotational spectrum 
--------------------
 
Rotational constants in cm-1:             0.022622             0.011103             0.010464 
Rotational constants in MHz :           678.184597           332.855486           313.715061 

Dipole components along the rotational axes: 
x,y,z [a.u.] :    -0.520561     2.272978     2.424638 
x,y,z [Debye]:    -1.323160     5.777450     6.162941 

 

-------------
DIPOLE MOMENT
-------------

Method             : TDA/CIS
Type of density    : Electron Density
Level              : Relaxed density
State              :   2
Multiplicity       :   3
Irrep              :   0
Energy             :     0.0000000000000000 Eh
Relativity type    : 
Basis              : AO
                                X                 Y                 Z
Electronic contribution:     -2.005402461     -10.056721537      -7.572764853
Nuclear contribution   :      1.701855055      11.599480131      10.731650455
                        -----------------------------------------
Total Dipole Moment    :     -0.303547407       1.542758594       3.158885602
                        -----------------------------------------
Magnitude (a.u.)       :      3.528569590
Magnitude (Debye)      :      8.968911127



--------------------
Rotational spectrum 
--------------------
 
Rotational constants in cm-1:             0.022622             0.011103             0.010464 
Rotational constants in MHz :           678.184597           332.855486           313.715061 

Dipole components along the rotational axes: 
x,y,z [a.u.] :    -0.523293     2.418243     2.515764 
x,y,z [Debye]:    -1.330105     6.146686     6.394563 

 

Dipole moment calculation done in   0.2 sec 

Maximum memory used throughout the entire PROP-calculation: 80.6 MB
[1739907035.224449] [ohm:403360:0]        ib_iface.c:1059 UCX  ERROR ibv_create_cq(cqe=256) failed: Connection timed out
[1739907035.224897] [ohm:403346:0]        ib_iface.c:1059 UCX  ERROR ibv_create_cq(cqe=256) failed: Connection timed out
[1739907035.246207] [ohm:403345:0]        ib_iface.c:1059 UCX  ERROR ibv_create_cq(cqe=256) failed: Connection timed out
[1739907035.285931] [ohm:403354:0]        ib_iface.c:1059 UCX  ERROR ibv_create_cq(cqe=256) failed: Connection timed out
[1739907035.289790] [ohm:403351:0]        ib_iface.c:1059 UCX  ERROR ibv_create_cq(cqe=256) failed: Connection timed out
[1739907035.293523] [ohm:403347:0]        ib_iface.c:1059 UCX  ERROR ibv_create_cq(cqe=256) failed: Connection timed out
[1739907035.293963] [ohm:403364:0]        ib_iface.c:1059 UCX  ERROR ibv_create_cq(cqe=256) failed: Connection timed out
[1739907035.294926] [ohm:403349:0]        ib_iface.c:1059 UCX  ERROR ibv_create_cq(cqe=256) failed: Connection timed out
[1739907035.298667] [ohm:403358:0]        ib_iface.c:1059 UCX  ERROR ibv_create_cq(cqe=256) failed: Connection timed out
[1739907035.299144] [ohm:403352:0]        ib_iface.c:1059 UCX  ERROR ibv_create_cq(cqe=256) failed: Connection timed out
[1739907035.299870] [ohm:403348:0]        ib_iface.c:1059 UCX  ERROR ibv_create_cq(cqe=256) failed: Connection timed out
[1739907035.300434] [ohm:403366:0]        ib_iface.c:1059 UCX  ERROR ibv_create_cq(cqe=256) failed: Connection timed out
[1739907035.300830] [ohm:403409:0]        ib_iface.c:1059 UCX  ERROR ibv_create_cq(cqe=256) failed: Connection timed out
[1739907035.304609] [ohm:403362:0]        ib_iface.c:1059 UCX  ERROR ibv_create_cq(cqe=256) failed: Connection timed out
[1739907035.310927] [ohm:403391:0]        ib_iface.c:1059 UCX  ERROR ibv_create_cq(cqe=256) failed: Connection timed out
[1739907035.311264] [ohm:403468:0]        ib_iface.c:1059 UCX  ERROR ibv_create_cq(cqe=256) failed: Connection timed out
[1739907035.346952] [ohm:403399:0]        ib_iface.c:1059 UCX  ERROR ibv_create_cq(cqe=256) failed: Connection timed out
[1739907035.349382] [ohm:403350:0]        ib_iface.c:1059 UCX  ERROR ibv_create_cq(cqe=256) failed: Connection timed out
[1739907035.361913] [ohm:403449:0]        ib_iface.c:1059 UCX  ERROR ibv_create_cq(cqe=256) failed: Connection timed out
[1739907035.362526] [ohm:403377:0]        ib_iface.c:1059 UCX  ERROR ibv_create_cq(cqe=256) failed: Connection timed out
[1739907035.363906] [ohm:403425:0]        ib_iface.c:1059 UCX  ERROR ibv_create_cq(cqe=256) failed: Connection timed out
[1739907035.376468] [ohm:403411:0]        ib_iface.c:1059 UCX  ERROR ibv_create_cq(cqe=256) failed: Connection timed out
[1739907035.386448] [ohm:403355:0]        ib_iface.c:1059 UCX  ERROR ibv_create_cq(cqe=256) failed: Connection timed out
[1739907035.388091] [ohm:403372:0]        ib_iface.c:1059 UCX  ERROR ibv_create_cq(cqe=256) failed: Connection timed out
[1739907035.407084] [ohm:403392:0]        ib_iface.c:1059 UCX  ERROR ibv_create_cq(cqe=256) failed: Connection timed out
[1739907035.407627] [ohm:403344:0]        ib_iface.c:1059 UCX  ERROR ibv_create_cq(cqe=256) failed: Connection timed out
[1739907035.411878] [ohm:403356:0]        ib_iface.c:1059 UCX  ERROR ibv_create_cq(cqe=256) failed: Connection timed out
[1739907035.416130] [ohm:403421:0]        ib_iface.c:1059 UCX  ERROR ibv_create_cq(cqe=256) failed: Connection timed out
[1739907035.419169] [ohm:403365:0]        ib_iface.c:1059 UCX  ERROR ibv_create_cq(cqe=256) failed: Connection timed out
[1739907035.423315] [ohm:403353:0]        ib_iface.c:1059 UCX  ERROR ibv_create_cq(cqe=256) failed: Connection timed out
[1739907035.431780] [ohm:403445:0]        ib_iface.c:1059 UCX  ERROR ibv_create_cq(cqe=256) failed: Connection timed out
[1739907035.445995] [ohm:403357:0]        ib_iface.c:1059 UCX  ERROR ibv_create_cq(cqe=256) failed: Connection timed out
[1739907035.461096] [ohm:403367:0]        ib_iface.c:1059 UCX  ERROR ibv_create_cq(cqe=256) failed: Connection timed out
[1739907035.474418] [ohm:403475:0]        ib_iface.c:1059 UCX  ERROR ibv_create_cq(cqe=256) failed: Connection timed out
[1739907035.474678] [ohm:403371:0]        ib_iface.c:1059 UCX  ERROR ibv_create_cq(cqe=256) failed: Connection timed out
[1739907035.486332] [ohm:403464:0]        ib_iface.c:1059 UCX  ERROR ibv_create_cq(cqe=256) failed: Connection timed out
[1739907035.486936] [ohm:403489:0]        ib_iface.c:1059 UCX  ERROR ibv_create_cq(cqe=256) failed: Connection timed out
[1739907035.494822] [ohm:403387:0]        ib_iface.c:1059 UCX  ERROR ibv_create_cq(cqe=256) failed: Connection timed out
[1739907035.502370] [ohm:403400:0]        ib_iface.c:1059 UCX  ERROR ibv_create_cq(cqe=256) failed: Connection timed out
[1739907035.511079] [ohm:403382:0]        ib_iface.c:1059 UCX  ERROR ibv_create_cq(cqe=256) failed: Connection timed out
[1739907035.511381] [ohm:403461:0]        ib_iface.c:1059 UCX  ERROR ibv_create_cq(cqe=256) failed: Connection timed out
[1739907035.519390] [ohm:403482:0]        ib_iface.c:1059 UCX  ERROR ibv_create_cq(cqe=256) failed: Connection timed out
[1739907035.522709] [ohm:403368:0]        ib_iface.c:1059 UCX  ERROR ibv_create_cq(cqe=256) failed: Connection timed out
[1739907035.529953] [ohm:403396:0]        ib_iface.c:1059 UCX  ERROR ibv_create_cq(cqe=256) failed: Connection timed out
[1739907035.537948] [ohm:403418:0]        ib_iface.c:1059 UCX  ERROR ibv_create_cq(cqe=256) failed: Connection timed out
[1739907035.539149] [ohm:403361:0]        ib_iface.c:1059 UCX  ERROR ibv_create_cq(cqe=256) failed: Connection timed out
[1739907035.542139] [ohm:403493:0]        ib_iface.c:1059 UCX  ERROR ibv_create_cq(cqe=256) failed: Connection timed out
[1739907035.548066] [ohm:403427:0]        ib_iface.c:1059 UCX  ERROR ibv_create_cq(cqe=256) failed: Connection timed out
[1739907035.553794] [ohm:403437:0]        ib_iface.c:1059 UCX  ERROR ibv_create_cq(cqe=256) failed: Connection timed out
[1739907035.555328] [ohm:403458:0]        ib_iface.c:1059 UCX  ERROR ibv_create_cq(cqe=256) failed: Connection timed out
[1739907035.567375] [ohm:403430:0]        ib_iface.c:1059 UCX  ERROR ibv_create_cq(cqe=256) failed: Connection timed out
[1739907035.570321] [ohm:403473:0]        ib_iface.c:1059 UCX  ERROR ibv_create_cq(cqe=256) failed: Connection timed out
[1739907035.571695] [ohm:403359:0]        ib_iface.c:1059 UCX  ERROR ibv_create_cq(cqe=256) failed: Connection timed out
[1739907035.572991] [ohm:403454:0]        ib_iface.c:1059 UCX  ERROR ibv_create_cq(cqe=256) failed: Connection timed out
[1739907035.573605] [ohm:403439:0]        ib_iface.c:1059 UCX  ERROR ibv_create_cq(cqe=256) failed: Connection timed out
[1739907035.574419] [ohm:403470:0]        ib_iface.c:1059 UCX  ERROR ibv_create_cq(cqe=256) failed: Connection timed out
[1739907035.575061] [ohm:403450:0]        ib_iface.c:1059 UCX  ERROR ibv_create_cq(cqe=256) failed: Connection timed out
[1739907035.578261] [ohm:403379:0]        ib_iface.c:1059 UCX  ERROR ibv_create_cq(cqe=256) failed: Connection timed out
[1739907035.580573] [ohm:403444:0]        ib_iface.c:1059 UCX  ERROR ibv_create_cq(cqe=256) failed: Connection timed out
[1739907035.581467] [ohm:403434:0]        ib_iface.c:1059 UCX  ERROR ibv_create_cq(cqe=256) failed: Connection timed out
[1739907035.582086] [ohm:403455:0]        ib_iface.c:1059 UCX  ERROR ibv_create_cq(cqe=256) failed: Connection timed out
[1739907035.583314] [ohm:403363:0]        ib_iface.c:1059 UCX  ERROR ibv_create_cq(cqe=256) failed: Connection timed out
[1739907035.583649] [ohm:403369:0]        ib_iface.c:1059 UCX  ERROR ibv_create_cq(cqe=256) failed: Connection timed out
[1739907035.584289] [ohm:403403:0]        ib_iface.c:1059 UCX  ERROR ibv_create_cq(cqe=256) failed: Connection timed out

--------------------------------
SUGGESTED CITATIONS FOR THIS RUN
--------------------------------

Below you find a list of papers that are relevant to this ORCA run
We neither can nor want to force you to cite these papers, but we appreciate if you do
You receive ORCA, which is the product of decades of hard work by many enthusiastic individuals, for free
The only thing we kindly ask in return is that you cite our papers,
We deeply appreciate it, if you show your appreciation for ORCA by not just citing the generic ORCA reference.

Please note that relegating all ORCA citations to the supporting information does *not* help us.
SI sections are not indexed - citations you put there will not count into any citation statistics
But we need these citations in order to attract the funding resources that allow us to do what we are doing

Therefore, if you are a happy ORCA user, please consider citing a few of the papers listed below in the main body of your paper

In addition to the list printed below, the program has created the file orca.bibtex that contains the list in bibtex format
You can import this file easily into all common literature databanks and citation aid programs


List of essential papers. We consider these as the minimum necessary citations

  1. Neese,F.
     Software update: the ORCA program system, version 5.0
     WIRES Comput. Molec. Sci., 2022 12(1)e1606
     doi.org/10.1002/wcms.1606

List of papers to cite with high priority. The work reported in these papers was absolutely
necessary for this run to complete.
Our perspective: the developers of density functionals and basis sets usually get cited in chemistry papers
Good! But without the algorithms to do something with them, the functionals or basis sets would not do anything.
Hence, in our opinion, the algorithm design and method developments papers are equally worthy of getting cited

  1. Neese,F.; Olbrich,G.
     Efficient use of the resolution of the identity approximation in time-dependent density functional calculations with hybrid density functionals
     Chem. Phys. Lett., 2002 362 170-178
     doi.org/10.1016/s0009-2614(02)01053-9
  2. Neese,F.
     An improvement of the resolution of the identity approximation for the formation of the Coulomb matrix
     J. Comp. Chem., 2003 24(14)1740-1747
     doi.org/10.1002/jcc.10318
  3. Neese,F.; Wennmohs,F.; Hansen,A.; Becker,U.
     Efficient, approximate and parallel Hartree-Fock and hybrid DFT calculations. A 'chain-of-spheres' algorithm for the Hartree-Fock exchange
     Chem. Phys., 2009 356(1-3)98-109
     doi.org/10.1016/j.chemphys.2008.10.036
  4. Petrenko,T.; Kossmann,S.; Neese,F.
     Efficient time-dependent density functional theory approximations for hybrid density functionals: Analytical gradients and parallelization
     J. Chem. Phys., 2011 134 054116
     doi.org/10.1063/1.3533441
  5. Helmich-Paris,B.; de Souza,B.; Neese,F.; Izsák,R.
     An improved chain of spheres for exchange algorithm
     J. Chem. Phys., 2021 155 104109
     doi.org/doi: 10.1063/5.0058766.
  6. Neese,F.
     The SHARK Integral Generation and Digestion System
     J. Comp. Chem., 2022  1-16
     doi.org/10.1002/jcc.26942
  7. Lehtola,S.; Steigemann,C.; Oliveira,M.; Marques,M.
     Recent developments in Libxc - A comprehensive library of functionals for density functional theory
     Software X, 2018 7 
     doi.org/10.1016/j.softx.2017.11.002
  8. Grimme,S.; Antony,J.; Ehrlich,S.; Krieg,H.
     A consistent and accurate ab initio parametrization of density functional dispersion correction (DFT-D) for the 94 elements H-Pu
     J. Chem. Phys., 2010 132 154104-XXXX
     doi.org/10.1063/1.3382344
  9. Grimme,S.; Ehrlich,S.; Goerigk,L.
     Effect of the damping function in dispersion corrected density functional theory
     J. Comput. Chem., 2011 32(7)1456-1465
     doi.org/10.1002/jcc.21759

List of suggested additional citations. These are papers that are important in the 'surrounding' of 
of this run, or papers that preceded the highly important papers. If you like your results we are grateful for a citation.

  1. Izsak,R.; Neese,F.
     An overlap fitted chain of spheres exchange method
     J. Chem. Phys., 2011 135 144105
     doi.org/10.1063/1.3646921
  2. Izsak,R.; Hansen,A.; Neese,F.
     The resolution of identity and chain of spheres approximations for the LPNO-CCSD singles Fock term
     Molec. Phys., 2012 110 2413-2417
     doi.org/10.1080/00268976.2012.687466
  3. Neese,F.
     The ORCA program system
     WIRES Comput. Molec. Sci., 2012 2(1)73-78
     doi.org/10.1002/wcms.81
  4. Izsak,R.; Neese,F.; Klopper,W.
     Robust fitting techniques in the chain of spheres approximation to the Fock exchange: The role of the complementary space
     J. Chem. Phys., 2013 139 
     doi.org/10.1063/1.4819264
  5. Neese,F.
     Software update: the ORCA program system, version 4.0
     WIRES Comput. Molec. Sci., 2018 8(1)1-6
     doi.org/10.1002/wcms.1327
  6. Neese,F.; Wennmohs,F.; Becker,U.; Riplinger,C.
     The ORCA quantum chemistry program package
     J. Chem. Phys., 2020 152 Art. No. L224108
     doi.org/10.1063/5.0004608

List of optional additional citations

  1. Neese,F.
     Approximate second-order SCF convergence for spin unrestricted wavefunctions
     Chem. Phys. Lett., 2000 325(1-3)93-98
     doi.org/10.1016/s0009-2614(00)00662-x

Timings for individual modules:

Sum of individual times          ...      269.818 sec (=   4.497 min)
Startup calculation              ...        6.292 sec (=   0.105 min)   2.3 %
SCF iterations                   ...      118.715 sec (=   1.979 min)  44.0 %
Property integrals               ...        4.366 sec (=   0.073 min)   1.6 %
Property calculations            ...        2.894 sec (=   0.048 min)   1.1 %
CIS module                       ...      137.551 sec (=   2.293 min)  51.0 %
                             ****ORCA TERMINATED NORMALLY****
TOTAL RUN TIME: 0 days 0 hours 4 minutes 31 seconds 947 msec
