
                                 *****************
                                 * O   R   C   A *
                                 *****************

                                            #,                                       
                                            ###                                      
                                            ####                                     
                                            #####                                    
                                            ######                                   
                                           ########,                                 
                                     ,,################,,,,,                         
                               ,,#################################,,                 
                          ,,##########################################,,             
                       ,#########################################, ''#####,          
                    ,#############################################,,   '####,        
                  ,##################################################,,,,####,       
                ,###########''''           ''''###############################       
              ,#####''   ,,,,##########,,,,          '''####'''          '####       
            ,##' ,,,,###########################,,,                        '##       
           ' ,,###''''                  '''############,,,                           
         ,,##''                                '''############,,,,        ,,,,,,###''
      ,#''                                            '''#######################'''  
     '                                                          ''''####''''         
             ,#######,   #######,   ,#######,      ##                                
            ,#'     '#,  ##    ##  ,#'     '#,    #''#        ,####,   ,####,        
            ##       ##  ##   ,#'  ##            #'  '#       #'       #'  '#        
            ##       ##  #######   ##           ,######,      #####,   #    #        
            '#,     ,#'  ##    ##  '#,     ,#' ,#      #,     #,   #   #,  ,#        
             '#######'   ##     ##  '#######'  #'      '#     '####' # '####'        



                #########################################################
                #                        -***-                          #
                #          Department of theory and spectroscopy        #
                #                                                       #
                #                      Frank Neese                      #
                #                                                       #
                #     Directorship, Architecture, Infrastructure        #
                #                    SHARK, DRIVERS                     #
                #        Core code/Algorithms in most modules           #
                #                                                       #
                #        Max Planck Institute fuer Kohlenforschung      #
                #                Kaiser Wilhelm Platz 1                 #
                #                 D-45470 Muelheim/Ruhr                 #
                #                      Germany                          #
                #                                                       #
                #                  All rights reserved                  #
                #                        -***-                          #
                #########################################################


                         Program Version 6.0.0  -   RELEASE  -


 With contributions from (in alphabetic order):
   Daniel Aravena         : Magnetic Suceptibility
   Michael Atanasov       : Ab Initio Ligand Field Theory (pilot matlab implementation)
   Alexander A. Auer      : GIAO ZORA, VPT2 properties, NMR spectrum
   Ute Becker             : All parallelization in ORCA, NUMFREQ, NUMCALC
   Giovanni Bistoni       : ED, misc. LED, open-shell LED, HFLD
   Martin Brehm           : Molecular dynamics
   Dmytro Bykov           : pre 5.0 version of the SCF Hessian
   Marcos Casanova-Páez   : Triplet and SCS-CIS(D). UHF-(DLPNO)-IP/EA/STEOM-CCSD. UHF-CVS-IP/STEOM-CCSD
   Vijay G. Chilkuri      : MRCI spin determinant printing, contributions to CSF-ICE
   Pauline Colinet        : FMM embedding
   Dipayan Datta          : RHF DLPNO-CCSD density
   Achintya Kumar Dutta   : EOM-CC, STEOM-CC
   Nicolas Foglia         : Exact transition moments, OPA infrastructure, MCD improvements
   Dmitry Ganyushin       : Spin-Orbit,Spin-Spin,Magnetic field MRCI
   Miquel Garcia          : C-PCM and meta-GGA Hessian, CCSD/C-PCM, Gaussian charge scheme
   Tiago L. C. Gouveia    : GS-ROHF, GS-ROCIS
   Yang Guo               : DLPNO-NEVPT2, F12-NEVPT2, CIM, IAO-localization
   Andreas Hansen         : Spin unrestricted coupled pair/coupled cluster methods
   Ingolf Harden          : AUTO-CI MPn and infrastructure 
   Benjamin Helmich-Paris : MC-RPA, TRAH-(SCF,CASSCF), AVAS, COSX integrals, SCF dyn. polar.
   Lee Huntington         : MR-EOM, pCC
   Robert Izsak           : Overlap fitted RIJCOSX, COSX-SCS-MP3, EOM
   Riya Kayal             : Wick's Theorem for AUTO-CI, AUTO-CI UHF-CCSDT
   Emily Kempfer          : AUTO-CI, RHF CISDT and CCSDT
   Christian Kollmar      : KDIIS, OOCD, Brueckner-CCSD(T), CCSD density, CASPT2, CASPT2-K, improved NEVPT2
   Axel Koslowski         : Symmetry handling
   Simone Kossmann        : Meta GGA functionals, TD-DFT gradient, OOMP2, (MP2 Hessian; deprecated post 5.0)
   Lucas Lang             : DCDCAS
   Marvin Lechner         : AUTO-CI (C++ implementation), FIC-MRCC
   Spencer Leger          : CASSCF response
   Dagmar Lenk            : GEPOL surface, SMD, ORCA-2-JSON
   Dimitrios Liakos       : Extrapolation schemes; Compound Job, initial MDCI parallelization
   Dimitrios Manganas     : Further ROCIS development; embedding schemes. LFT, Crystal Embedding
   Dimitrios Pantazis     : SARC Basis sets
   Anastasios Papadopoulos: AUTO-CI, single reference methods and gradients
   Taras Petrenko         : pre 6.0 DFT Hessian and TD-DFT gradient, (ASA, deprecated), ECA, 1-Electron XAS/XES, NRVS
   Peter Pinski           : DLPNO-MP2, DLPNO-MP2 Gradient
   Christoph Reimann      : Effective Core Potentials
   Marius Retegan         : Local ZFS, SOC
   Christoph Riplinger    : Optimizer, TS searches, QM/MM, DLPNO-CCSD(T), (RO)-DLPNO pert. Triples
   Michael Roemelt        : Original ROCIS implementation
   Masaaki Saitow         : Open-shell DLPNO-CCSD energy and density
   Barbara Sandhoefer     : DKH picture change effects
   Kantharuban Sivalingam : CASSCF convergence/infrastructure, NEVPT2 and variants, FIC-MRCI
   Bernardo de Souza      : ESD, SOC TD-DFT
   Georgi Stoychev        : AutoAux, RI-MP2 NMR, DLPNO-MP2 response, X2C
   Van Anh Tran           : RI-MP2 g-tensors
   Willem Van den Heuvel  : Paramagnetic NMR
   Zikuan Wang            : NOTCH, Electric field optimization 
   Frank Wennmohs         : Technical directorship and infrastructure
   Hang Xu                : AUTO-CI-Response properties 


 We gratefully acknowledge several colleagues who have allowed us to
 interface, adapt or use parts of their codes:
   Stefan Grimme, W. Hujo, H. Kruse, P. Pracht,  : VdW corrections, initial TS optimization,
                  C. Bannwarth, S. Ehlert,         DFT functionals, gCP, sTDA/sTD-DF
                  L. Wittmann, M. Mueller
   Ed Valeev, F. Pavosevic, A. Kumar             : LibInt (2-el integral package), F12 methods
   Garnet Chan, S. Sharma, J. Yang, R. Olivares  : DMRG
   Ulf Ekstrom                                   : XCFun DFT Library
   Mihaly Kallay                                 : mrcc  (arbitrary order and MRCC methods)
   Frank Weinhold                                : gennbo (NPA and NBO analysis)
   Simon Mueller                                 : openCOSMO-RS
   Christopher J. Cramer and Donald G. Truhlar   : smd solvation model
   Lars Goerigk                                  : TD-DFT with DH, B97 family of functionals
   V. Asgeirsson, H. Jonsson                     : NEB implementation
   FAccTs GmbH                                   : IRC, NEB, NEB-TS, DLPNO-Multilevel, CI-OPT
                                                   MM, QMMM, 2- and 3-layer-ONIOM, Crystal-QMMM,
                                                   LR-CPCM, SF, NACMEs, symmetry and pop. for TD-DFT,
                                                   nearIR, NL-DFT gradient (VV10), updates on ESD,
                                                   ML-optimized integration grids, MBIS, APM,
                                                   GOAT, DOCKER, SOLVATOR, interface openCOSMO-RS
   S Lehtola, MJT Oliveira, MAL Marques          : LibXC Library
   Liviu Ungur et al                             : ANISO software


 Your calculation uses the libint2 library for the computation of 2-el integrals
 For citations please refer to: http://libint.valeyev.net

 Your ORCA version has been built with support for libXC version: 6.2.2
 For citations please refer to: https://libxc.gitlab.io

 This ORCA versions uses:
   CBLAS   interface :  Fast vector & matrix operations
   LAPACKE interface :  Fast linear algebra routines
   SCALAPACK package :  Parallel linear algebra routines
   Shared memory     :  Shared parallel matrices
   BLAS/LAPACK       :  OpenBLAS 0.3.27  USE64BITINT DYNAMIC_ARCH NO_AFFINITY Zen SINGLE_THREADED
        Core in use  :  Zen
   Copyright (c) 2011-2014, The OpenBLAS Project


Your calculation utilizes the atom-pairwise dispersion correction
with the Becke-Johnson damping scheme (D3BJ)


Warning: RI is on but no J-basis has been assigned. Assigning Def2/J (nothing to worry about!)
================================================================================

----- Orbital basis set information -----
Your calculation utilizes the basis: def2-TZVPPD
   F. Weigend and R. Ahlrichs, Phys. Chem. Chem. Phys. 7, 3297 (2005).
   D. Rappoport and F. Furche, J. Chem. Phys. 133, 134105 (2010)
   D. Rappoport, J. Chem. Phys. 155, 124102 (2021).

----- AuxJ basis set information -----
Your calculation utilizes the auxiliary basis: def2/J
   F. Weigend, Phys. Chem. Chem. Phys. 8, 1057 (2006).

================================================================================
                                        WARNINGS
                       Please study these warnings very carefully!
================================================================================

Using LibXC functional ID 531 : wB97M-V exchange-correlation functional
[ 1]  N. Mardirossian and M. Head-Gordon.,  J. Chem. Phys. 144, 214110 (2016)
Using LibXC functional ID 531 : wB97M-V exchange-correlation functional
[ 1]  N. Mardirossian and M. Head-Gordon.,  J. Chem. Phys. 144, 214110 (2016)

WARNING: B97M-V or wB97M-V functional requested.
  ===> : libXC variant has now been activated.
         Any manually given DFX/HFX/RangeSep scaling parameters are IGNORED!

Your calculation utilizes LibXC
 by S Lehtola, C Steigemann, MJT Oliveira & MAL Marques
Please cite in your paper:
 S Lehtola, C Steigemann, MJT Oliveira & MAL Marques, SoftwareX, 7, (2018), 1.
   


WARNING: your system is open-shell and RHF/RKS was chosen
  ===> : WILL SWITCH to UHF/UKS

INFO   : Checking CIS options ...

WARNING: CIS/ROCIS methods need fully converged wavefunctions
  ===> : Setting SCFConvForced true
         You can overwrite this default with %scf ConvForced false 


================================================================================
                                       INPUT FILE
================================================================================
NAME = orca.inp
|  1> ! Engrad def2-TZVPPD wB97M-D3BJ 
|  2> %pal nprocs 8 end%pal nprocs 64 end 
|  3> %tddft Nroots 2 Iroot 1 
|  4> sf true 
|  5> end 
|  6> *xyz 0 3 
|  7> O   3.78652414 0.45550826 -0.02359798
|  8> O   -1.28122716 1.15164494 -2.4920233
|  9> O   0.95307144 -2.88065231 -1.20862876
| 10> O   -3.58193855 -1.23458479 0.56293595
| 11> N   0.26188466 -1.43724437 0.39184609
| 12> N   -2.00097885 0.20819474 1.33275598
| 13> N   2.35961087 -1.21406096 -0.5841518
| 14> N   -2.19912503 -0.24253525 -0.94513006
| 15> C   1.72158824 0.38137278 1.09839216
| 16> C   -0.74040435 1.49816778 -0.2080444
| 17> C   0.4273657 -0.32656915 1.29163484
| 18> C   -0.65006163 0.73793774 1.12758683
| 19> C   2.08767099 1.51300016 1.97100704
| 20> C   -0.61159448 2.96574164 -0.22223648
| 21> C   2.7087463 -0.09136905 0.1387586
| 22> C   -1.37991012 0.81266762 -1.3307273
| 23> C   1.1609447 -1.91506596 -0.51338035
| 24> C   -2.65854895 -0.48088659 0.34339899
| 25> H   0.35712242 -0.70149612 2.32936341
| 26> H   -0.48807291 1.47371673 1.90121716
| 27> H   3.16542083 1.60073584 2.02051137
| 28> H   1.7197515 2.46050955 1.58448679
| 29> H   1.67260986 1.39205992 2.96938981
| 30> H   -1.41284432 3.4095079 0.37870799
| 31> H   0.31592432 3.27951358 0.23416086
| 32> H   -0.68086159 3.34350637 -1.23512832
| 33> H   -0.54371232 -2.02863523 0.47558564
| 34> H   -2.3386576 -0.01125148 2.24992278
| 35> H   3.01159165 -1.53695468 -1.28963757
| 36> H   -2.70115669 -0.72004679 -1.68742634
| 37> *
| 38> 
| 39>                          ****END OF INPUT****
================================================================================

                     *******************************
                     * Energy+Gradient Calculation *
                     *******************************

---------------------------------
CARTESIAN COORDINATES (ANGSTROEM)
---------------------------------
  O      3.786524    0.455508   -0.023598
  O     -1.281227    1.151645   -2.492023
  O      0.953071   -2.880652   -1.208629
  O     -3.581939   -1.234585    0.562936
  N      0.261885   -1.437244    0.391846
  N     -2.000979    0.208195    1.332756
  N      2.359611   -1.214061   -0.584152
  N     -2.199125   -0.242535   -0.945130
  C      1.721588    0.381373    1.098392
  C     -0.740404    1.498168   -0.208044
  C      0.427366   -0.326569    1.291635
  C     -0.650062    0.737938    1.127587
  C      2.087671    1.513000    1.971007
  C     -0.611594    2.965742   -0.222236
  C      2.708746   -0.091369    0.138759
  C     -1.379910    0.812668   -1.330727
  C      1.160945   -1.915066   -0.513380
  C     -2.658549   -0.480887    0.343399
  H      0.357122   -0.701496    2.329363
  H     -0.488073    1.473717    1.901217
  H      3.165421    1.600736    2.020511
  H      1.719752    2.460510    1.584487
  H      1.672610    1.392060    2.969390
  H     -1.412844    3.409508    0.378708
  H      0.315924    3.279514    0.234161
  H     -0.680862    3.343506   -1.235128
  H     -0.543712   -2.028635    0.475586
  H     -2.338658   -0.011251    2.249923
  H      3.011592   -1.536955   -1.289638
  H     -2.701157   -0.720047   -1.687426

----------------------------
CARTESIAN COORDINATES (A.U.)
----------------------------
  NO LB      ZA    FRAG     MASS         X           Y           Z
   0 O     8.0000    0    15.999    7.155494    0.860786   -0.044594
   1 O     8.0000    0    15.999   -2.421168    2.176294   -4.709242
   2 O     8.0000    0    15.999    1.801044   -5.443644   -2.283977
   3 O     8.0000    0    15.999   -6.768883   -2.333027    1.063795
   4 N     7.0000    0    14.007    0.494890   -2.715998    0.740482
   5 N     7.0000    0    14.007   -3.781302    0.393431    2.518544
   6 N     7.0000    0    14.007    4.459018   -2.294243   -1.103887
   7 N     7.0000    0    14.007   -4.155744   -0.458325   -1.786037
   8 C     6.0000    0    12.011    3.253330    0.720690    2.075660
   9 C     6.0000    0    12.011   -1.399161    2.831127   -0.393147
  10 C     6.0000    0    12.011    0.807604   -0.617126    2.440836
  11 C     6.0000    0    12.011   -1.228438    1.394500    2.130830
  12 C     6.0000    0    12.011    3.945126    2.859156    3.724664
  13 C     6.0000    0    12.011   -1.155746    5.604439   -0.419966
  14 C     6.0000    0    12.011    5.118789   -0.172662    0.262216
  15 C     6.0000    0    12.011   -2.607652    1.535719   -2.514710
  16 C     6.0000    0    12.011    2.193868   -3.618950   -0.970148
  17 C     6.0000    0    12.011   -5.023929   -0.908744    0.648930
  18 H     1.0000    0     1.008    0.674864   -1.325636    4.401859
  19 H     1.0000    0     1.008   -0.922324    2.784921    3.592780
  20 H     1.0000    0     1.008    5.981778    3.024952    3.818213
  21 H     1.0000    0     1.008    3.249859    4.649689    2.994246
  22 H     1.0000    0     1.008    3.160775    2.630612    5.611334
  23 H     1.0000    0     1.008   -2.669889    6.443036    0.715654
  24 H     1.0000    0     1.008    0.597010    6.197383    0.442500
  25 H     1.0000    0     1.008   -1.286642    6.318311   -2.334054
  26 H     1.0000    0     1.008   -1.027467   -3.833565    0.898727
  27 H     1.0000    0     1.008   -4.419422   -0.021262    4.251738
  28 H     1.0000    0     1.008    5.691083   -2.904423   -2.437062
  29 H     1.0000    0     1.008   -5.104446   -1.360691   -3.188774

--------------------------------
INTERNAL COORDINATES (ANGSTROEM)
--------------------------------
 O      0   0   0     0.000000000000     0.00000000     0.00000000
 O      1   0   0     5.679774033913     0.00000000     0.00000000
 O      1   2   0     4.534613489759    54.48461864     0.00000000
 O      2   1   3     4.507786734482    95.50762904    54.06271168
 N      3   1   2     2.263335015322    62.40857669   295.66003023
 N      4   2   1     2.274570118462    62.53823266    43.06665261
 N      1   2   3     2.266663505152    54.62765719   358.97336602
 N      4   2   1     2.273895030872     7.78367005   321.70492505
 C      1   2   3     2.351237592155    55.08585759   279.90109183
 C      6   4   2     2.372160265451   119.63408282   359.83214309
 C      5   3   1     1.438959072923   154.06565914   355.90436524
 C      6   4   2     1.465503108647   145.34768397   318.41181601
 C      9   1   2     1.475145360909    92.30066691   240.17831632
 C     10   6   4     1.473284233371   126.47035594   124.45449919
 C      1   2   3     1.219442300257    47.48653490   319.29595425
 C      2   1   3     1.213776070651    67.82134599    72.58932389
 C      3   1   2     1.207865324917    32.21040897   295.35388549
 C      4   2   1     1.211984243659    32.77476443    34.48609260
 H     11   5   3     1.105615184507   108.53339905   244.11859600
 H     12   6   4     1.079868026672   106.51561705   179.12735448
 H     13   9   1     1.082447664256   109.65294236   337.38818336
 H     13   9   1     1.087445032597   111.97434774    95.26513676
 H     13   9   1     1.087966193740   111.27749943   215.08720978
 H     14  10   6     1.095474351885   109.52923788   342.64789511
 H     14  10   6     1.080297406571   111.11984534    99.63930652
 H     14  10   6     1.083260819608   110.53590012   222.58226398
 H      5   3   1     1.002866868388    85.88758312   184.90751741
 H      6   4   2     1.001687835953    86.36590437   173.20743562
 H      7   1   2     1.013434489041    90.10565978   112.46591589
 H      8   4  18     1.015409683713    88.79640617   181.37939973

---------------------------
INTERNAL COORDINATES (A.U.)
---------------------------
 O      0   0   0     0.000000000000     0.00000000     0.00000000
 O      1   0   0    10.733217426652     0.00000000     0.00000000
 O      1   2   0     8.569177618830    54.48461864     0.00000000
 O      2   1   3     8.518482398294    95.50762904    54.06271168
 N      3   1   2     4.277083328274    62.40857669   295.66003023
 N      4   2   1     4.298314596294    62.53823266    43.06665261
 N      1   2   3     4.283373262492    54.62765719   358.97336602
 N      4   2   1     4.297038865633     7.78367005   321.70492505
 C      1   2   3     4.443195124953    55.08585759   279.90109183
 C      6   4   2     4.482733247473   119.63408282   359.83214309
 C      5   3   1     2.719238565746   154.06565914   355.90436524
 C      6   4   2     2.769399523753   145.34768397   318.41181601
 C      9   1   2     2.787620739842    92.30066691   240.17831632
 C     10   6   4     2.784103718495   126.47035594   124.45449919
 C      1   2   3     2.304411983606    47.48653490   319.29595425
 C      2   1   3     2.293704361437    67.82134599    72.58932389
 C      3   1   2     2.282534670753    32.21040897   295.35388549
 C      4   2   1     2.290318299143    32.77476443    34.48609260
 H     11   5   3     2.089309908223   108.53339905   244.11859600
 H     12   6   4     2.040654831188   106.51561705   179.12735448
 H     13   9   1     2.045529639747   109.65294236   337.38818336
 H     13   9   1     2.054973297302   111.97434774    95.26513676
 H     13   9   1     2.055958149133   111.27749943   215.08720978
 H     14  10   6     2.070146511798   109.52923788   342.64789511
 H     14  10   6     2.041466241604   111.11984534    99.63930652
 H     14  10   6     2.047066280667   110.53590012   222.58226398
 H      5   3   1     1.895143730037    85.88758312   184.90751741
 H      6   4   2     1.892915681631    86.36590437   173.20743562
 H      7   1   2     1.915113638957    90.10565978   112.46591589
 H      8   4  18     1.918846215948    88.79640617   181.37939973

---------------------
BASIS SET INFORMATION
---------------------
There are 4 groups of distinct atoms

 Group   1 Type O   : 12s7p3d1f contracted to 6s4p3d1f pattern {621111/4111/111/1}
 Group   2 Type N   : 12s6p3d1f contracted to 6s3p3d1f pattern {621111/411/111/1}
 Group   3 Type C   : 12s6p3d1f contracted to 6s3p3d1f pattern {621111/411/111/1}
 Group   4 Type H   : 5s3p1d contracted to 3s3p1d pattern {311/111/1}

Atom   0O    basis set group =>   1
Atom   1O    basis set group =>   1
Atom   2O    basis set group =>   1
Atom   3O    basis set group =>   1
Atom   4N    basis set group =>   2
Atom   5N    basis set group =>   2
Atom   6N    basis set group =>   2
Atom   7N    basis set group =>   2
Atom   8C    basis set group =>   3
Atom   9C    basis set group =>   3
Atom  10C    basis set group =>   3
Atom  11C    basis set group =>   3
Atom  12C    basis set group =>   3
Atom  13C    basis set group =>   3
Atom  14C    basis set group =>   3
Atom  15C    basis set group =>   3
Atom  16C    basis set group =>   3
Atom  17C    basis set group =>   3
Atom  18H    basis set group =>   4
Atom  19H    basis set group =>   4
Atom  20H    basis set group =>   4
Atom  21H    basis set group =>   4
Atom  22H    basis set group =>   4
Atom  23H    basis set group =>   4
Atom  24H    basis set group =>   4
Atom  25H    basis set group =>   4
Atom  26H    basis set group =>   4
Atom  27H    basis set group =>   4
Atom  28H    basis set group =>   4
Atom  29H    basis set group =>   4
---------------------------------
AUXILIARY/J BASIS SET INFORMATION
---------------------------------
There are 4 groups of distinct atoms

 Group   1 Type O   : 12s5p4d2f1g contracted to 6s4p3d1f1g pattern {711111/2111/211/2/1}
 Group   2 Type N   : 12s5p4d2f1g contracted to 6s4p3d1f1g pattern {711111/2111/211/2/1}
 Group   3 Type C   : 12s5p4d2f1g contracted to 6s4p3d1f1g pattern {711111/2111/211/2/1}
 Group   4 Type H   : 5s2p1d contracted to 3s1p1d pattern {311/2/1}

Atom   0O    basis set group =>   1
Atom   1O    basis set group =>   1
Atom   2O    basis set group =>   1
Atom   3O    basis set group =>   1
Atom   4N    basis set group =>   2
Atom   5N    basis set group =>   2
Atom   6N    basis set group =>   2
Atom   7N    basis set group =>   2
Atom   8C    basis set group =>   3
Atom   9C    basis set group =>   3
Atom  10C    basis set group =>   3
Atom  11C    basis set group =>   3
Atom  12C    basis set group =>   3
Atom  13C    basis set group =>   3
Atom  14C    basis set group =>   3
Atom  15C    basis set group =>   3
Atom  16C    basis set group =>   3
Atom  17C    basis set group =>   3
Atom  18H    basis set group =>   4
Atom  19H    basis set group =>   4
Atom  20H    basis set group =>   4
Atom  21H    basis set group =>   4
Atom  22H    basis set group =>   4
Atom  23H    basis set group =>   4
Atom  24H    basis set group =>   4
Atom  25H    basis set group =>   4
Atom  26H    basis set group =>   4
Atom  27H    basis set group =>   4
Atom  28H    basis set group =>   4
Atom  29H    basis set group =>   4
[1739896942.253883] [ohm:266140:0]        ib_iface.c:1059 UCX  ERROR ibv_create_cq(cqe=256) failed: Connection timed out
[1739896942.262911] [ohm:266134:0]        ib_iface.c:1059 UCX  ERROR ibv_create_cq(cqe=256) failed: Connection timed out
[1739896942.273791] [ohm:266127:0]        ib_iface.c:1059 UCX  ERROR ibv_create_cq(cqe=256) failed: Connection timed out
[1739896942.311089] [ohm:266132:0]        ib_iface.c:1059 UCX  ERROR ibv_create_cq(cqe=256) failed: Connection timed out
[1739896942.323871] [ohm:266139:0]        ib_iface.c:1059 UCX  ERROR ibv_create_cq(cqe=256) failed: Connection timed out
[1739896942.354987] [ohm:266126:0]        ib_iface.c:1059 UCX  ERROR ibv_create_cq(cqe=256) failed: Connection timed out
[1739896942.357049] [ohm:266141:0]        ib_iface.c:1059 UCX  ERROR ibv_create_cq(cqe=256) failed: Connection timed out
[1739896942.358907] [ohm:266138:0]        ib_iface.c:1059 UCX  ERROR ibv_create_cq(cqe=256) failed: Connection timed out
[1739896942.362162] [ohm:266128:0]        ib_iface.c:1059 UCX  ERROR ibv_create_cq(cqe=256) failed: Connection timed out
[1739896942.372529] [ohm:266146:0]        ib_iface.c:1059 UCX  ERROR ibv_create_cq(cqe=256) failed: Connection timed out
[1739896942.374615] [ohm:266124:0]        ib_iface.c:1059 UCX  ERROR ibv_create_cq(cqe=256) failed: Connection timed out
[1739896942.374724] [ohm:266133:0]        ib_iface.c:1059 UCX  ERROR ibv_create_cq(cqe=256) failed: Connection timed out
[1739896942.384397] [ohm:266137:0]        ib_iface.c:1059 UCX  ERROR ibv_create_cq(cqe=256) failed: Connection timed out
[1739896942.409629] [ohm:266135:0]        ib_iface.c:1059 UCX  ERROR ibv_create_cq(cqe=256) failed: Connection timed out
[1739896942.427035] [ohm:266129:0]        ib_iface.c:1059 UCX  ERROR ibv_create_cq(cqe=256) failed: Connection timed out
[1739896942.433059] [ohm:266199:0]        ib_iface.c:1059 UCX  ERROR ibv_create_cq(cqe=256) failed: Connection timed out
[1739896942.439235] [ohm:266123:0]        ib_iface.c:1059 UCX  ERROR ibv_create_cq(cqe=256) failed: Connection timed out
[1739896942.439336] [ohm:266136:0]        ib_iface.c:1059 UCX  ERROR ibv_create_cq(cqe=256) failed: Connection timed out
[1739896942.439737] [ohm:266256:0]        ib_iface.c:1059 UCX  ERROR ibv_create_cq(cqe=256) failed: Connection timed out
[1739896942.445520] [ohm:266183:0]        ib_iface.c:1059 UCX  ERROR ibv_create_cq(cqe=256) failed: Connection timed out
[1739896942.448240] [ohm:266196:0]        ib_iface.c:1059 UCX  ERROR ibv_create_cq(cqe=256) failed: Connection timed out
[1739896942.453689] [ohm:266130:0]        ib_iface.c:1059 UCX  ERROR ibv_create_cq(cqe=256) failed: Connection timed out
[1739896942.453697] [ohm:266145:0]        ib_iface.c:1059 UCX  ERROR ibv_create_cq(cqe=256) failed: Connection timed out
[1739896942.455132] [ohm:266253:0]        ib_iface.c:1059 UCX  ERROR ibv_create_cq(cqe=256) failed: Connection timed out
[1739896942.457544] [ohm:266143:0]        ib_iface.c:1059 UCX  ERROR ibv_create_cq(cqe=256) failed: Connection timed out
[1739896942.459056] [ohm:266273:0]        ib_iface.c:1059 UCX  ERROR ibv_create_cq(cqe=256) failed: Connection timed out
[1739896942.468453] [ohm:266148:0]        ib_iface.c:1059 UCX  ERROR ibv_create_cq(cqe=256) failed: Connection timed out
[1739896942.471661] [ohm:266179:0]        ib_iface.c:1059 UCX  ERROR ibv_create_cq(cqe=256) failed: Connection timed out
[1739896942.485453] [ohm:266131:0]        ib_iface.c:1059 UCX  ERROR ibv_create_cq(cqe=256) failed: Connection timed out
[1739896942.493599] [ohm:266211:0]        ib_iface.c:1059 UCX  ERROR ibv_create_cq(cqe=256) failed: Connection timed out
[1739896942.503140] [ohm:266231:0]        ib_iface.c:1059 UCX  ERROR ibv_create_cq(cqe=256) failed: Connection timed out
[1739896942.506464] [ohm:266218:0]        ib_iface.c:1059 UCX  ERROR ibv_create_cq(cqe=256) failed: Connection timed out
[1739896942.508276] [ohm:266125:0]        ib_iface.c:1059 UCX  ERROR ibv_create_cq(cqe=256) failed: Connection timed out
[1739896942.512397] [ohm:266221:0]        ib_iface.c:1059 UCX  ERROR ibv_create_cq(cqe=256) failed: Connection timed out
[1739896942.514416] [ohm:266170:0]        ib_iface.c:1059 UCX  ERROR ibv_create_cq(cqe=256) failed: Connection timed out
[1739896942.514397] [ohm:266236:0]        ib_iface.c:1059 UCX  ERROR ibv_create_cq(cqe=256) failed: Connection timed out
[1739896942.517723] [ohm:266264:0]        ib_iface.c:1059 UCX  ERROR ibv_create_cq(cqe=256) failed: Connection timed out
[1739896942.523794] [ohm:266167:0]        ib_iface.c:1059 UCX  ERROR ibv_create_cq(cqe=256) failed: Connection timed out
[1739896942.544981] [ohm:266181:0]        ib_iface.c:1059 UCX  ERROR ibv_create_cq(cqe=256) failed: Connection timed out
[1739896942.547661] [ohm:266151:0]        ib_iface.c:1059 UCX  ERROR ibv_create_cq(cqe=256) failed: Connection timed out
[1739896942.555177] [ohm:266154:0]        ib_iface.c:1059 UCX  ERROR ibv_create_cq(cqe=256) failed: Connection timed out
[1739896942.559347] [ohm:266207:0]        ib_iface.c:1059 UCX  ERROR ibv_create_cq(cqe=256) failed: Connection timed out
[1739896942.559874] [ohm:266243:0]        ib_iface.c:1059 UCX  ERROR ibv_create_cq(cqe=256) failed: Connection timed out
[1739896942.562461] [ohm:266176:0]        ib_iface.c:1059 UCX  ERROR ibv_create_cq(cqe=256) failed: Connection timed out
[1739896942.565971] [ohm:266174:0]        ib_iface.c:1059 UCX  ERROR ibv_create_cq(cqe=256) failed: Connection timed out
[1739896942.566510] [ohm:266187:0]        ib_iface.c:1059 UCX  ERROR ibv_create_cq(cqe=256) failed: Connection timed out
[1739896942.568304] [ohm:266247:0]        ib_iface.c:1059 UCX  ERROR ibv_create_cq(cqe=256) failed: Connection timed out
[1739896942.571261] [ohm:266150:0]        ib_iface.c:1059 UCX  ERROR ibv_create_cq(cqe=256) failed: Connection timed out
[1739896942.573269] [ohm:266149:0]        ib_iface.c:1059 UCX  ERROR ibv_create_cq(cqe=256) failed: Connection timed out
[1739896942.575059] [ohm:266203:0]        ib_iface.c:1059 UCX  ERROR ibv_create_cq(cqe=256) failed: Connection timed out
[1739896942.581760] [ohm:266144:0]        ib_iface.c:1059 UCX  ERROR ibv_create_cq(cqe=256) failed: Connection timed out
[1739896942.585267] [ohm:266244:0]        ib_iface.c:1059 UCX  ERROR ibv_create_cq(cqe=256) failed: Connection timed out
[1739896942.593353] [ohm:266209:0]        ib_iface.c:1059 UCX  ERROR ibv_create_cq(cqe=256) failed: Connection timed out
[1739896942.594083] [ohm:266160:0]        ib_iface.c:1059 UCX  ERROR ibv_create_cq(cqe=256) failed: Connection timed out
[1739896942.595982] [ohm:266158:0]        ib_iface.c:1059 UCX  ERROR ibv_create_cq(cqe=256) failed: Connection timed out
[1739896942.597003] [ohm:266147:0]        ib_iface.c:1059 UCX  ERROR ibv_create_cq(cqe=256) failed: Connection timed out
[1739896942.598290] [ohm:266239:0]        ib_iface.c:1059 UCX  ERROR ibv_create_cq(cqe=256) failed: Connection timed out
[1739896942.598502] [ohm:266251:0]        ib_iface.c:1059 UCX  ERROR ibv_create_cq(cqe=256) failed: Connection timed out
[1739896942.598779] [ohm:266259:0]        ib_iface.c:1059 UCX  ERROR ibv_create_cq(cqe=256) failed: Connection timed out
[1739896942.599029] [ohm:266228:0]        ib_iface.c:1059 UCX  ERROR ibv_create_cq(cqe=256) failed: Connection timed out
[1739896942.599173] [ohm:266214:0]        ib_iface.c:1059 UCX  ERROR ibv_create_cq(cqe=256) failed: Connection timed out
[1739896942.599641] [ohm:266191:0]        ib_iface.c:1059 UCX  ERROR ibv_create_cq(cqe=256) failed: Connection timed out
[1739896942.600577] [ohm:266142:0]        ib_iface.c:1059 UCX  ERROR ibv_create_cq(cqe=256) failed: Connection timed out
[1739896942.601462] [ohm:266224:0]        ib_iface.c:1059 UCX  ERROR ibv_create_cq(cqe=256) failed: Connection timed out


           ************************************************************
           *        Program running with 64 parallel MPI-processes    *
           *              working on a common directory               *
           ************************************************************
------------------------------------------------------------------------------
                             ORCA STARTUP CALCULATIONS
                           -- RI-GTO INTEGRALS CHOSEN --
------------------------------------------------------------------------------
------------------------------------------------------------------------------
                   ___                                                        
                  /   \      - P O W E R E D   B Y -                         
                 /     \                                                     
                 |  |  |   _    _      __       _____    __    __             
                 |  |  |  | |  | |    /  \     |  _  \  |  |  /  |          
                  \  \/   | |  | |   /    \    | | | |  |  | /  /          
                 / \  \   | |__| |  /  /\  \   | |_| |  |  |/  /          
                |  |  |   |  __  | /  /__\  \  |    /   |      \           
                |  |  |   | |  | | |   __   |  |    \   |  |\   \          
                \     /   | |  | | |  |  |  |  | |\  \  |  | \   \       
                 \___/    |_|  |_| |__|  |__|  |_| \__\ |__|  \__/        
                                                                              
                      - O R C A' S   B I G   F R I E N D -                    
                                      &                                       
                       - I N T E G R A L  F E E D E R -                       
                                                                              
 v1 FN, 2020, v2 2021, v3 2022-2024                                           
------------------------------------------------------------------------------


----------------------
SHARK INTEGRAL PACKAGE
----------------------

Number of atoms                             ...     30
Number of basis functions                   ...    882
Number of shells                            ...    322
Maximum angular momentum                    ...      3
Integral batch strategy                     ... SHARK/LIBINT Hybrid
RI-J (if used) integral strategy            ... SPLIT-RIJ (Revised 2003 algorithm where possible)
Printlevel                                  ...      1
Contraction scheme used                     ... SEGMENTED contraction
Prescreening option                         ... SCHWARTZ
   Thresh                                   ... 2.500e-11
   Tcut                                     ... 2.500e-12
   Tpresel                                  ... 2.500e-12 
Coulomb Range Separation                    ... NOT USED
Exchange Range Separation                   ... Long Range
   Mu parameter                             ... 3.000e-01
   Scaling (regular/separated)              ... 1.500e-01 8.500e-01
Multipole approximations                    ... NOT USED
Finite Nucleus Model                        ... NOT USED
CABS basis                                  ... NOT available
Auxiliary Coulomb fitting basis             ... AVAILABLE
   # of basis functions in Aux-J            ...   1014
   # of shells in Aux-J                     ...    330
   Maximum angular momentum in Aux-J        ...      4
Auxiliary J/K fitting basis                 ... NOT available
Auxiliary Correlation fitting basis         ... NOT available
Auxiliary 'external' fitting basis          ... NOT available

Checking pre-screening integrals            ... done (  0.0 sec) Dimension = 322
Check shell pair data                       ... done (  0.0 sec)
Shell pair information
Shell pair cut-off parameter TPreSel        ...   2.5e-12
Total number of shell pairs                 ...     52003
Shell pairs after pre-screening             ...     44514
Total number of primitive shell pairs       ...    129718
Primitive shell pairs kept                  ...     83009
          la=0 lb=0:   8626 shell pairs
          la=1 lb=0:  11793 shell pairs
          la=1 lb=1:   4077 shell pairs
          la=2 lb=0:   8020 shell pairs
          la=2 lb=1:   5543 shell pairs
          la=2 lb=2:   1907 shell pairs
          la=3 lb=0:   2015 shell pairs
          la=3 lb=1:   1433 shell pairs
          la=3 lb=2:    970 shell pairs
          la=3 lb=3:    130 shell pairs

Calculating one electron integrals          ... done (  0.2 sec)
Calculating RI/J V-Matrix + Cholesky decomp.... done (  0.1 sec)
Calculating Nuclear repulsion               ... done (  0.0 sec) ENN=   1419.157736784142 Eh

Diagonalization of the overlap matrix:
Smallest eigenvalue                        ... 5.212e-07
Time for diagonalization                   ...    0.127 sec
Threshold for overlap eigenvalues          ... 1.000e-07
Number of eigenvalues below threshold      ... 0

IMPORTANT:
Smallest eigenvalue of S below the DiffSThresh (1.000e-06) while
Thresh>1e-12 and/or TCut>1e-13! In order to avoid SCF convergence issues,
Thresh will be set to at least 1e-12 and TCut to at least 1e-13.
This can be turned off by adding %SCF DiffSThresh -1 END to the input.

Time for construction of square roots      ...    0.133 sec
Total time needed                          ...    0.278 sec

-------------------
DFT GRID GENERATION
-------------------

General Integration Accuracy     IntAcc      ... 4.388
Radial Grid Type                 RadialGrid  ... OptM3 with GC (2021)
Angular Grid (max. ang.)         AngularGrid ... 4 (Lebedev-302)
Angular grid pruning method      GridPruning ... 4 (adaptive)
Weight generation scheme         WeightScheme... mBecke (2022)
Basis function cutoff            BFCut       ... 1.0000e-11
Integration weight cutoff        WCut        ... 1.0000e-14
Partially contracted basis set               ... off
Rotationally invariant grid construction     ... off
Angular grids for H and He will be reduced by one unit
Diffuse basis detected: some atoms will have their outermost
                        angular grid increased by 1.

Total number of grid points                  ...   152081
Total number of batches                      ...     2393
Average number of points per batch           ...       63
Average number of grid points per atom       ...     5069

--------------------
COSX GRID GENERATION
--------------------

GRIDX 1
-------
General Integration Accuracy     IntAcc      ... 3.816
Radial Grid Type                 RadialGrid  ... OptM3 with GC (2021)
Angular Grid (max. ang.)         AngularGrid ... 1 (Lebedev-50)
Angular grid pruning method      GridPruning ... 4 (adaptive)
Weight generation scheme         WeightScheme... mBecke (2022)
Basis function cutoff            BFCut       ... 1.0000e-11
Integration weight cutoff        WCut        ... 1.0000e-14
Partially contracted basis set               ... on
Rotationally invariant grid construction     ... off
Angular grids for H and He will be reduced by one unit
Diffuse basis detected: some atoms will have their outermost
                        angular grid increased by 1.

Total number of grid points                  ...    19070
Total number of batches                      ...      166
Average number of points per batch           ...      114
Average number of grid points per atom       ...      636
UseSFitting                                  ... on

GRIDX 2
-------
General Integration Accuracy     IntAcc      ... 4.020
Radial Grid Type                 RadialGrid  ... OptM3 with GC (2021)
Angular Grid (max. ang.)         AngularGrid ... 2 (Lebedev-110)
Angular grid pruning method      GridPruning ... 4 (adaptive)
Weight generation scheme         WeightScheme... mBecke (2022)
Basis function cutoff            BFCut       ... 1.0000e-11
Integration weight cutoff        WCut        ... 1.0000e-14
Partially contracted basis set               ... on
Rotationally invariant grid construction     ... off
Angular grids for H and He will be reduced by one unit
Diffuse basis detected: some atoms will have their outermost
                        angular grid increased by 1.

Total number of grid points                  ...    46035
Total number of batches                      ...      375
Average number of points per batch           ...      122
Average number of grid points per atom       ...     1534
UseSFitting                                  ... on

GRIDX 3
-------
General Integration Accuracy     IntAcc      ... 4.338
Radial Grid Type                 RadialGrid  ... OptM3 with GC (2021)
Angular Grid (max. ang.)         AngularGrid ... 3 (Lebedev-194)
Angular grid pruning method      GridPruning ... 4 (adaptive)
Weight generation scheme         WeightScheme... mBecke (2022)
Basis function cutoff            BFCut       ... 1.0000e-11
Integration weight cutoff        WCut        ... 1.0000e-14
Partially contracted basis set               ... on
Rotationally invariant grid construction     ... off
Angular grids for H and He will be reduced by one unit
Diffuse basis detected: some atoms will have their outermost
                        angular grid increased by 1.

Total number of grid points                  ...   101238
Total number of batches                      ...      806
Average number of points per batch           ...      125
Average number of grid points per atom       ...     3375
UseSFitting                                  ... on
Initializing property integral containers    ... done (  0.0 sec)

SHARK setup successfully completed in   4.4 seconds

Maximum memory used throughout the entire STARTUP-calculation: 79.3 MB
[1739896948.801325] [ohm:266528:0]        ib_iface.c:1059 UCX  ERROR ibv_create_cq(cqe=256) failed: Connection timed out
[1739896948.805930] [ohm:266524:0]        ib_iface.c:1059 UCX  ERROR ibv_create_cq(cqe=256) failed: Connection timed out
[1739896948.812851] [ohm:266521:0]        ib_iface.c:1059 UCX  ERROR ibv_create_cq(cqe=256) failed: Connection timed out
[1739896948.817914] [ohm:266522:0]        ib_iface.c:1059 UCX  ERROR ibv_create_cq(cqe=256) failed: Connection timed out
[1739896948.830770] [ohm:266551:0]        ib_iface.c:1059 UCX  ERROR ibv_create_cq(cqe=256) failed: Connection timed out
[1739896948.838227] [ohm:266660:0]        ib_iface.c:1059 UCX  ERROR ibv_create_cq(cqe=256) failed: Connection timed out
[1739896948.849355] [ohm:266531:0]        ib_iface.c:1059 UCX  ERROR ibv_create_cq(cqe=256) failed: Connection timed out
[1739896948.857741] [ohm:266525:0]        ib_iface.c:1059 UCX  ERROR ibv_create_cq(cqe=256) failed: Connection timed out
[1739896948.866448] [ohm:266523:0]        ib_iface.c:1059 UCX  ERROR ibv_create_cq(cqe=256) failed: Connection timed out
[1739896948.875961] [ohm:266529:0]        ib_iface.c:1059 UCX  ERROR ibv_create_cq(cqe=256) failed: Connection timed out
[1739896948.883018] [ohm:266550:0]        ib_iface.c:1059 UCX  ERROR ibv_create_cq(cqe=256) failed: Connection timed out
[1739896948.885652] [ohm:266530:0]        ib_iface.c:1059 UCX  ERROR ibv_create_cq(cqe=256) failed: Connection timed out
[1739896948.886170] [ohm:266640:0]        ib_iface.c:1059 UCX  ERROR ibv_create_cq(cqe=256) failed: Connection timed out
[1739896948.888044] [ohm:266631:0]        ib_iface.c:1059 UCX  ERROR ibv_create_cq(cqe=256) failed: Connection timed out
[1739896948.898881] [ohm:266650:0]        ib_iface.c:1059 UCX  ERROR ibv_create_cq(cqe=256) failed: Connection timed out
[1739896948.904592] [ohm:266597:0]        ib_iface.c:1059 UCX  ERROR ibv_create_cq(cqe=256) failed: Connection timed out
[1739896948.945816] [ohm:266549:0]        ib_iface.c:1059 UCX  ERROR ibv_create_cq(cqe=256) failed: Connection timed out
[1739896948.948916] [ohm:266533:0]        ib_iface.c:1059 UCX  ERROR ibv_create_cq(cqe=256) failed: Connection timed out
[1739896948.949658] [ohm:266636:0]        ib_iface.c:1059 UCX  ERROR ibv_create_cq(cqe=256) failed: Connection timed out
[1739896948.950827] [ohm:266544:0]        ib_iface.c:1059 UCX  ERROR ibv_create_cq(cqe=256) failed: Connection timed out
[1739896948.961893] [ohm:266548:0]        ib_iface.c:1059 UCX  ERROR ibv_create_cq(cqe=256) failed: Connection timed out
[1739896948.961907] [ohm:266560:0]        ib_iface.c:1059 UCX  ERROR ibv_create_cq(cqe=256) failed: Connection timed out
[1739896948.984968] [ohm:266534:0]        ib_iface.c:1059 UCX  ERROR ibv_create_cq(cqe=256) failed: Connection timed out
[1739896948.988112] [ohm:266626:0]        ib_iface.c:1059 UCX  ERROR ibv_create_cq(cqe=256) failed: Connection timed out
[1739896948.992634] [ohm:266618:0]        ib_iface.c:1059 UCX  ERROR ibv_create_cq(cqe=256) failed: Connection timed out
[1739896949.009651] [ohm:266651:0]        ib_iface.c:1059 UCX  ERROR ibv_create_cq(cqe=256) failed: Connection timed out
[1739896949.018105] [ohm:266614:0]        ib_iface.c:1059 UCX  ERROR ibv_create_cq(cqe=256) failed: Connection timed out
[1739896949.019378] [ohm:266538:0]        ib_iface.c:1059 UCX  ERROR ibv_create_cq(cqe=256) failed: Connection timed out
[1739896949.025452] [ohm:266540:0]        ib_iface.c:1059 UCX  ERROR ibv_create_cq(cqe=256) failed: Connection timed out
[1739896949.033177] [ohm:266539:0]        ib_iface.c:1059 UCX  ERROR ibv_create_cq(cqe=256) failed: Connection timed out
[1739896949.036490] [ohm:266536:0]        ib_iface.c:1059 UCX  ERROR ibv_create_cq(cqe=256) failed: Connection timed out
[1739896949.040079] [ohm:266662:0]        ib_iface.c:1059 UCX  ERROR ibv_create_cq(cqe=256) failed: Connection timed out
[1739896949.042270] [ohm:266541:0]        ib_iface.c:1059 UCX  ERROR ibv_create_cq(cqe=256) failed: Connection timed out
[1739896949.043512] [ohm:266611:0]        ib_iface.c:1059 UCX  ERROR ibv_create_cq(cqe=256) failed: Connection timed out
[1739896949.067444] [ohm:266583:0]        ib_iface.c:1059 UCX  ERROR ibv_create_cq(cqe=256) failed: Connection timed out
[1739896949.073227] [ohm:266535:0]        ib_iface.c:1059 UCX  ERROR ibv_create_cq(cqe=256) failed: Connection timed out
[1739896949.079579] [ohm:266644:0]        ib_iface.c:1059 UCX  ERROR ibv_create_cq(cqe=256) failed: Connection timed out
[1739896949.081219] [ohm:266543:0]        ib_iface.c:1059 UCX  ERROR ibv_create_cq(cqe=256) failed: Connection timed out
[1739896949.090004] [ohm:266527:0]        ib_iface.c:1059 UCX  ERROR ibv_create_cq(cqe=256) failed: Connection timed out
[1739896949.092369] [ohm:266603:0]        ib_iface.c:1059 UCX  ERROR ibv_create_cq(cqe=256) failed: Connection timed out
[1739896949.093724] [ohm:266579:0]        ib_iface.c:1059 UCX  ERROR ibv_create_cq(cqe=256) failed: Connection timed out
[1739896949.093924] [ohm:266632:0]        ib_iface.c:1059 UCX  ERROR ibv_create_cq(cqe=256) failed: Connection timed out
[1739896949.094686] [ohm:266553:0]        ib_iface.c:1059 UCX  ERROR ibv_create_cq(cqe=256) failed: Connection timed out
[1739896949.095436] [ohm:266655:0]        ib_iface.c:1059 UCX  ERROR ibv_create_cq(cqe=256) failed: Connection timed out
[1739896949.099435] [ohm:266576:0]        ib_iface.c:1059 UCX  ERROR ibv_create_cq(cqe=256) failed: Connection timed out
[1739896949.099657] [ohm:266567:0]        ib_iface.c:1059 UCX  ERROR ibv_create_cq(cqe=256) failed: Connection timed out
[1739896949.102450] [ohm:266630:0]        ib_iface.c:1059 UCX  ERROR ibv_create_cq(cqe=256) failed: Connection timed out
[1739896949.113981] [ohm:266565:0]        ib_iface.c:1059 UCX  ERROR ibv_create_cq(cqe=256) failed: Connection timed out
[1739896949.118977] [ohm:266648:0]        ib_iface.c:1059 UCX  ERROR ibv_create_cq(cqe=256) failed: Connection timed out
[1739896949.119806] [ohm:266586:0]        ib_iface.c:1059 UCX  ERROR ibv_create_cq(cqe=256) failed: Connection timed out
[1739896949.123093] [ohm:266545:0]        ib_iface.c:1059 UCX  ERROR ibv_create_cq(cqe=256) failed: Connection timed out
[1739896949.127502] [ohm:266558:0]        ib_iface.c:1059 UCX  ERROR ibv_create_cq(cqe=256) failed: Connection timed out
[1739896949.127878] [ohm:266542:0]        ib_iface.c:1059 UCX  ERROR ibv_create_cq(cqe=256) failed: Connection timed out
[1739896949.128816] [ohm:266526:0]        ib_iface.c:1059 UCX  ERROR ibv_create_cq(cqe=256) failed: Connection timed out
[1739896949.130339] [ohm:266546:0]        ib_iface.c:1059 UCX  ERROR ibv_create_cq(cqe=256) failed: Connection timed out
[1739896949.130895] [ohm:266605:0]        ib_iface.c:1059 UCX  ERROR ibv_create_cq(cqe=256) failed: Connection timed out
[1739896949.131070] [ohm:266593:0]        ib_iface.c:1059 UCX  ERROR ibv_create_cq(cqe=256) failed: Connection timed out
[1739896949.131326] [ohm:266571:0]        ib_iface.c:1059 UCX  ERROR ibv_create_cq(cqe=256) failed: Connection timed out
[1739896949.131782] [ohm:266537:0]        ib_iface.c:1059 UCX  ERROR ibv_create_cq(cqe=256) failed: Connection timed out
[1739896949.133278] [ohm:266656:0]        ib_iface.c:1059 UCX  ERROR ibv_create_cq(cqe=256) failed: Connection timed out
[1739896949.133350] [ohm:266547:0]        ib_iface.c:1059 UCX  ERROR ibv_create_cq(cqe=256) failed: Connection timed out
[1739896949.133771] [ohm:266622:0]        ib_iface.c:1059 UCX  ERROR ibv_create_cq(cqe=256) failed: Connection timed out
[1739896949.135922] [ohm:266609:0]        ib_iface.c:1059 UCX  ERROR ibv_create_cq(cqe=256) failed: Connection timed out
[1739896949.136759] [ohm:266532:0]        ib_iface.c:1059 UCX  ERROR ibv_create_cq(cqe=256) failed: Connection timed out


           ************************************************************
           *        Program running with 64 parallel MPI-processes    *
           *              working on a common directory               *
           ************************************************************
-------------------------------------------------------------------------------
                                 ORCA GUESS
                   Start orbitals & Density for SCF / CASSCF
-------------------------------------------------------------------------------

------------
SCF SETTINGS
------------
Hamiltonian:
 Density Functional     Method          .... DFT(GTOs)
  Functional kind                       .... Exchange-Correlation
  Functional name                       .... wB97M-V exchange-correlation functional
  Functional family                     .... Hybrid MGGA
  Functional refs                              
    [ 0] N. Mardirossian and M. Head-Gordon.,  J. Chem. Phys. 144, 214110 (2016), doi: 10.1063/1.4952647
  Fraction of HF Exchange (short range) .... 0.1500
  Fraction of HF Exchange (long range)  .... 1.0000
  Range separation parameter mu         .... 0.3000
  Functional external parameters        .... 17
    Parameter  0 _cx00      =  8.500000e-01 : u^00 coefficient for exchange
    Parameter  1 _cx01      =  1.007000e+00 : u^01 coefficient for exchange
    Parameter  2 _cx10      =  2.590000e-01 : u^10 coefficient for exchange
    Parameter  3 _css00     =  4.430000e-01 : u^00 coefficient for same-spin correlation
    Parameter  4 _css04     = -1.437000e+00 : u^04 coefficient for same-spin correlation
    Parameter  5 _css10     = -4.535000e+00 : u^10 coefficient for same-spin correlation
    Parameter  6 _css20     = -3.390000e+00 : u^20 coefficient for same-spin correlation
    Parameter  7 _css43     =  4.278000e+00 : u^43 coefficient for same-spin correlation
    Parameter  8 _cos00     =  1.000000e+00 : u^00 coefficient for opposite-spin correlation
    Parameter  9 _cos10     =  1.358000e+00 : u^10 coefficient for opposite-spin correlation
    Parameter 10 _cos20     =  2.924000e+00 : u^20 coefficient for opposite-spin correlation
    Parameter 11 _cos21     = -8.812000e+00 : u^21 coefficient for opposite-spin correlation
    Parameter 12 _cos60     = -1.390000e+00 : u^60 coefficient for opposite-spin correlation
    Parameter 13 _cos61     =  9.142000e+00 : u^61 coefficient for opposite-spin correlation
    Parameter 14 _alpha     =  1.000000e+00 : fraction of HF exchange
    Parameter 15 _beta      = -8.500000e-01 : fraction of short-range exchange
    Parameter 16 _omega     =  3.000000e-01 : range-separation constant
 Long-range corrected/Screened/Range-Separated Hybrid DFT is turned on
   Amount of maximum screened exact exchange              ....  0.850000
   Range separation parameter mu (erf(mu*r12)/r12)        ....  0.300000
 RI-approximation to the Coulomb term is turned on
   Number of AuxJ basis functions       .... 1014
   RIJ-COSX (HFX calculated with COS-X)).... on


General Settings:
 Integral files         IntName         .... orca
 Hartree-Fock type      HFTyp           .... UHF
 Total Charge           Charge          ....    0
 Multiplicity           Mult            ....    3
 Number of Electrons    NEL             ....  132
 Basis Dimension        Dim             ....  882
 Nuclear Repulsion      ENuc            ....   1419.1577367841 Eh

Convergence Acceleration:
 AO-DIIS                CNVDIIS         .... on
   Start iteration      DIISMaxIt       ....    12
   Startup error        DIISStart       ....  0.200000
   # of expansion vecs  DIISMaxEq       ....     5
   Bias factor          DIISBfac        ....   1.050
   Max. coefficient     DIISMaxC        ....  10.000
 MO-DIIS                CNVKDIIS        .... off
 Trust-Rad. Augm. Hess. CNVTRAH         .... auto
   Auto Start mean grad. ratio tolernc. ....  1.125000
   Auto Start start iteration           ....    50
   Auto Start num. interpolation iter.  ....    10
   Max. Number of Micro iterations      ....    24
   Max. Number of Macro iterations      .... Maxiter - #DIIS iter
   Number of Davidson start vectors     ....     2
   Converg. threshold    (grad. norm)   ....   1.000e-05
   Grad. Scal. Fac. for Micro threshold ....   0.100
   Minimum threshold for Micro iter.    ....   1.000e-02
   NR start threshold (gradient norm)   ....   1.000e-04
   Initial trust radius                 ....   0.400
   Minimum AH scaling param. (alpha)    ....   1.000
   Maximum AH scaling param. (alpha)    .... 1000.000
   Quad. conv. algorithm                .... NR
   White noise on init. David. guess    .... on
   Maximum white noise                  ....   0.010
   Pseudo random numbers                .... off
   Inactive MOs                         .... canonical
   Orbital update algorithm             .... Taylor
   Preconditioner                       .... Diag
   Full preconditioner red. dimension   ....   250
 SOSCF                  CNVSOSCF        .... on
   Start iteration      SOSCFMaxIt      ....   150
   Startup grad/error   SOSCFStart      ....  0.003300
   Hessian update       SOSCFHessUp     .... L-BFGS
 Level Shifting         CNVShift        .... on
   Level shift para.    LevelShift      ....    0.2500
   Turn off err/grad.   ShiftErr        ....    0.0010
 Zerner damping         CNVZerner       .... off
 Static damping         CNVDamp         .... on
   Fraction old density DampFac         ....    0.7000
   Max. Damping (<1)    DampMax         ....    0.9800
   Min. Damping (>=0)   DampMin         ....    0.0000
   Turn off err/grad.   DampErr         ....    0.1000

SCF Procedure:
 Maximum # iterations   MaxIter         ....   125
 SCF integral mode      SCFMode         .... Direct
   Integral package                     .... SHARK and LIBINT hybrid scheme
 Reset frequency        DirectResetFreq ....    20
 Integral Threshold     Thresh          ....  1.000e-12 Eh
 Primitive CutOff       TCut            ....  1.000e-13 Eh

Convergence Tolerance:
 Convergence Check Mode ConvCheckMode   .... Total+1el-Energy
 Convergence forced     ConvForced      .... 1
 Energy Change          TolE            ....  1.000e-08 Eh
 1-El. energy change                    ....  1.000e-05 Eh
 Orbital Gradient       TolG            ....  1.000e-05
 Orbital Rotation angle TolX            ....  1.000e-05
 DIIS Error             TolErr          ....  5.000e-07

------------------------------
INITIAL GUESS: MODEL POTENTIAL
------------------------------
Loading Hartree-Fock densities                     ... done
Calculating cut-offs                               ... done
Initializing the effective Hamiltonian             ... done
Setting up the integral package (SHARK)            ... done
Starting the Coulomb interaction                   ... done (   0.1 sec)
Making the grid                                    ... done (   0.2 sec)
Mapping shells                                     ... done
Starting the XC term evaluation                    ... done (   0.1 sec)
  promolecular density results
     # of electrons  =    131.994757929
     EX              =   -113.584493539
     EC              =     -4.497711633
     EX+EC           =   -118.082205173
Transforming the Hamiltonian                       ... done (   0.1 sec)
Diagonalizing the Hamiltonian                      ... done (   0.1 sec)
Back transforming the eigenvectors                 ... done (   0.1 sec)
Now organizing SCF variables                       ... done
                      ------------------
                      INITIAL GUESS DONE (   1.1 sec)
                      ------------------
             **** ENERGY FILE WAS UPDATED (orca.en.tmp) ****
Finished Guess after   3.6 sec
Maximum memory used throughout the entire GUESS-calculation: 71.8 MB
[1739896953.043944] [ohm:266887:0]        ib_iface.c:1059 UCX  ERROR ibv_create_cq(cqe=256) failed: Connection timed out
[1739896953.049467] [ohm:266870:0]        ib_iface.c:1059 UCX  ERROR ibv_create_cq(cqe=256) failed: Connection timed out
[1739896953.050072] [ohm:266876:0]        ib_iface.c:1059 UCX  ERROR ibv_create_cq(cqe=256) failed: Connection timed out
[1739896953.051711] [ohm:266869:0]        ib_iface.c:1059 UCX  ERROR ibv_create_cq(cqe=256) failed: Connection timed out
[1739896953.056720] [ohm:266871:0]        ib_iface.c:1059 UCX  ERROR ibv_create_cq(cqe=256) failed: Connection timed out
[1739896953.061014] [ohm:266875:0]        ib_iface.c:1059 UCX  ERROR ibv_create_cq(cqe=256) failed: Connection timed out
[1739896953.073959] [ohm:266873:0]        ib_iface.c:1059 UCX  ERROR ibv_create_cq(cqe=256) failed: Connection timed out
[1739896953.082943] [ohm:266877:0]        ib_iface.c:1059 UCX  ERROR ibv_create_cq(cqe=256) failed: Connection timed out
[1739896953.106593] [ohm:266872:0]        ib_iface.c:1059 UCX  ERROR ibv_create_cq(cqe=256) failed: Connection timed out
[1739896953.112613] [ohm:266890:0]        ib_iface.c:1059 UCX  ERROR ibv_create_cq(cqe=256) failed: Connection timed out
[1739896953.116101] [ohm:266883:0]        ib_iface.c:1059 UCX  ERROR ibv_create_cq(cqe=256) failed: Connection timed out
[1739896953.119554] [ohm:266878:0]        ib_iface.c:1059 UCX  ERROR ibv_create_cq(cqe=256) failed: Connection timed out
[1739896953.129459] [ohm:266880:0]        ib_iface.c:1059 UCX  ERROR ibv_create_cq(cqe=256) failed: Connection timed out
[1739896953.137803] [ohm:266889:0]        ib_iface.c:1059 UCX  ERROR ibv_create_cq(cqe=256) failed: Connection timed out
[1739896953.154976] [ohm:266897:0]        ib_iface.c:1059 UCX  ERROR ibv_create_cq(cqe=256) failed: Connection timed out
[1739896953.185171] [ohm:266886:0]        ib_iface.c:1059 UCX  ERROR ibv_create_cq(cqe=256) failed: Connection timed out
[1739896953.203333] [ohm:266916:0]        ib_iface.c:1059 UCX  ERROR ibv_create_cq(cqe=256) failed: Connection timed out
[1739896953.207878] [ohm:266900:0]        ib_iface.c:1059 UCX  ERROR ibv_create_cq(cqe=256) failed: Connection timed out
[1739896953.217610] [ohm:266933:0]        ib_iface.c:1059 UCX  ERROR ibv_create_cq(cqe=256) failed: Connection timed out
[1739896953.218846] [ohm:266950:0]        ib_iface.c:1059 UCX  ERROR ibv_create_cq(cqe=256) failed: Connection timed out
[1739896953.222888] [ohm:266888:0]        ib_iface.c:1059 UCX  ERROR ibv_create_cq(cqe=256) failed: Connection timed out
[1739896953.224888] [ohm:266993:0]        ib_iface.c:1059 UCX  ERROR ibv_create_cq(cqe=256) failed: Connection timed out
[1739896953.228385] [ohm:266885:0]        ib_iface.c:1059 UCX  ERROR ibv_create_cq(cqe=256) failed: Connection timed out
[1739896953.245884] [ohm:267007:0]        ib_iface.c:1059 UCX  ERROR ibv_create_cq(cqe=256) failed: Connection timed out
[1739896953.253707] [ohm:266902:0]        ib_iface.c:1059 UCX  ERROR ibv_create_cq(cqe=256) failed: Connection timed out
[1739896953.257687] [ohm:266874:0]        ib_iface.c:1059 UCX  ERROR ibv_create_cq(cqe=256) failed: Connection timed out
[1739896953.259588] [ohm:267001:0]        ib_iface.c:1059 UCX  ERROR ibv_create_cq(cqe=256) failed: Connection timed out
[1739896953.261126] [ohm:266967:0]        ib_iface.c:1059 UCX  ERROR ibv_create_cq(cqe=256) failed: Connection timed out
[1739896953.261864] [ohm:266908:0]        ib_iface.c:1059 UCX  ERROR ibv_create_cq(cqe=256) failed: Connection timed out
[1739896953.266544] [ohm:266961:0]        ib_iface.c:1059 UCX  ERROR ibv_create_cq(cqe=256) failed: Connection timed out
[1739896953.270860] [ohm:266893:0]        ib_iface.c:1059 UCX  ERROR ibv_create_cq(cqe=256) failed: Connection timed out
[1739896953.287779] [ohm:266896:0]        ib_iface.c:1059 UCX  ERROR ibv_create_cq(cqe=256) failed: Connection timed out
[1739896953.293748] [ohm:266953:0]        ib_iface.c:1059 UCX  ERROR ibv_create_cq(cqe=256) failed: Connection timed out
[1739896953.293879] [ohm:266920:0]        ib_iface.c:1059 UCX  ERROR ibv_create_cq(cqe=256) failed: Connection timed out
[1739896953.296166] [ohm:266938:0]        ib_iface.c:1059 UCX  ERROR ibv_create_cq(cqe=256) failed: Connection timed out
[1739896953.296607] [ohm:266882:0]        ib_iface.c:1059 UCX  ERROR ibv_create_cq(cqe=256) failed: Connection timed out
[1739896953.302287] [ohm:266894:0]        ib_iface.c:1059 UCX  ERROR ibv_create_cq(cqe=256) failed: Connection timed out
[1739896953.309561] [ohm:266891:0]        ib_iface.c:1059 UCX  ERROR ibv_create_cq(cqe=256) failed: Connection timed out
[1739896953.309815] [ohm:266982:0]        ib_iface.c:1059 UCX  ERROR ibv_create_cq(cqe=256) failed: Connection timed out
[1739896953.312809] [ohm:266947:0]        ib_iface.c:1059 UCX  ERROR ibv_create_cq(cqe=256) failed: Connection timed out
[1739896953.313425] [ohm:266924:0]        ib_iface.c:1059 UCX  ERROR ibv_create_cq(cqe=256) failed: Connection timed out
[1739896953.313494] [ohm:266996:0]        ib_iface.c:1059 UCX  ERROR ibv_create_cq(cqe=256) failed: Connection timed out
[1739896953.316089] [ohm:266963:0]        ib_iface.c:1059 UCX  ERROR ibv_create_cq(cqe=256) failed: Connection timed out
[1739896953.332936] [ohm:266921:0]        ib_iface.c:1059 UCX  ERROR ibv_create_cq(cqe=256) failed: Connection timed out
[1739896953.333447] [ohm:267018:0]        ib_iface.c:1059 UCX  ERROR ibv_create_cq(cqe=256) failed: Connection timed out
[1739896953.350102] [ohm:266911:0]        ib_iface.c:1059 UCX  ERROR ibv_create_cq(cqe=256) failed: Connection timed out
[1739896953.350429] [ohm:266930:0]        ib_iface.c:1059 UCX  ERROR ibv_create_cq(cqe=256) failed: Connection timed out
[1739896953.356313] [ohm:267011:0]        ib_iface.c:1059 UCX  ERROR ibv_create_cq(cqe=256) failed: Connection timed out
[1739896953.358363] [ohm:266989:0]        ib_iface.c:1059 UCX  ERROR ibv_create_cq(cqe=256) failed: Connection timed out
[1739896953.361924] [ohm:266942:0]        ib_iface.c:1059 UCX  ERROR ibv_create_cq(cqe=256) failed: Connection timed out
[1739896953.363037] [ohm:266925:0]        ib_iface.c:1059 UCX  ERROR ibv_create_cq(cqe=256) failed: Connection timed out
[1739896953.365826] [ohm:266977:0]        ib_iface.c:1059 UCX  ERROR ibv_create_cq(cqe=256) failed: Connection timed out
[1739896953.368089] [ohm:266968:0]        ib_iface.c:1059 UCX  ERROR ibv_create_cq(cqe=256) failed: Connection timed out
[1739896953.368518] [ohm:267022:0]        ib_iface.c:1059 UCX  ERROR ibv_create_cq(cqe=256) failed: Connection timed out
[1739896953.370478] [ohm:266972:0]        ib_iface.c:1059 UCX  ERROR ibv_create_cq(cqe=256) failed: Connection timed out
[1739896953.372949] [ohm:266892:0]        ib_iface.c:1059 UCX  ERROR ibv_create_cq(cqe=256) failed: Connection timed out
[1739896953.373183] [ohm:266884:0]        ib_iface.c:1059 UCX  ERROR ibv_create_cq(cqe=256) failed: Connection timed out
[1739896953.373414] [ohm:266965:0]        ib_iface.c:1059 UCX  ERROR ibv_create_cq(cqe=256) failed: Connection timed out
[1739896953.373879] [ohm:266985:0]        ib_iface.c:1059 UCX  ERROR ibv_create_cq(cqe=256) failed: Connection timed out
[1739896953.377150] [ohm:266957:0]        ib_iface.c:1059 UCX  ERROR ibv_create_cq(cqe=256) failed: Connection timed out
[1739896953.378456] [ohm:266987:0]        ib_iface.c:1059 UCX  ERROR ibv_create_cq(cqe=256) failed: Connection timed out
[1739896953.379123] [ohm:266944:0]        ib_iface.c:1059 UCX  ERROR ibv_create_cq(cqe=256) failed: Connection timed out
[1739896953.382457] [ohm:266879:0]        ib_iface.c:1059 UCX  ERROR ibv_create_cq(cqe=256) failed: Connection timed out
[1739896953.383416] [ohm:266881:0]        ib_iface.c:1059 UCX  ERROR ibv_create_cq(cqe=256) failed: Connection timed out


           ************************************************************
           *        Program running with 64 parallel MPI-processes    *
           *              working on a common directory               *
           ************************************************************

-------------------------------------------------------------------------------------------
                                      ORCA LEAN-SCF
                              memory conserving SCF solver
-------------------------------------------------------------------------------------------

----------------------------------------D-I-I-S--------------------------------------------
Iteration    Energy (Eh)           Delta-E    RMSDP     MaxDP     DIISErr   Damp  Time(sec)
-------------------------------------------------------------------------------------------
               ***  Starting incremental Fock matrix formation  ***
    1    -908.1475802424522499     0.00e+00  1.83e-03  3.29e-01  1.46e-01  0.700   7.6
    2    -908.4147542294274444    -2.67e-01  1.42e-03  2.32e-01  6.93e-02  0.700   6.4
                               ***Turning on AO-DIIS***
    3    -908.5330991725061267    -1.18e-01  9.95e-04  1.48e-01  2.94e-02  0.700   5.7
    4    -908.6057415252810188    -7.26e-02  2.27e-03  3.25e-01  1.82e-02  0.000   5.6
    5    -908.7688605596461002    -1.63e-01  2.55e-04  7.54e-02  4.02e-03  0.000   5.7
                              *** Initializing SOSCF ***
---------------------------------------S-O-S-C-F--------------------------------------
Iteration    Energy (Eh)           Delta-E    RMSDP     MaxDP     MaxGrad    Time(sec)
--------------------------------------------------------------------------------------
    6    -908.7701394987254844    -1.28e-03  1.28e-04  3.61e-02  2.63e-03     6.4
               *** Restarting incremental Fock matrix formation ***
    7    -908.7706972850230613    -5.58e-04  3.07e-04  3.35e-02  4.72e-03     7.3
    8    -908.7710679469180377    -3.71e-04  2.57e-04  4.84e-02  2.55e-03     6.6
    9    -908.7711997636195065    -1.32e-04  1.61e-04  1.54e-02  9.42e-04     6.6
   10    -908.7712628983215382    -6.31e-05  2.90e-05  7.08e-03  4.18e-04     6.4
   11    -908.7712722674561974    -9.37e-06  9.91e-06  1.60e-03  1.53e-04     6.1
   12    -908.7712741416160043    -1.87e-06  5.91e-06  1.13e-03  1.65e-04     5.9
   13    -908.7712751455303533    -1.00e-06  4.96e-06  8.43e-04  3.74e-05     5.9
   14    -908.7712752748054754    -1.29e-07  1.44e-06  2.85e-04  2.16e-05     5.8
   15    -908.7712753115299620    -3.67e-08  1.52e-06  2.88e-04  8.10e-06     5.6
   16    -908.7712753327020891    -2.12e-08  1.06e-06  2.42e-04  3.83e-06     5.5
   17    -908.7712753339199026    -1.22e-09  1.58e-06  5.67e-04  2.04e-06     5.3
                 **** Energy Check signals convergence ****

               *****************************************************
               *                     SUCCESS                       *
               *           SCF CONVERGED AFTER  17 CYCLES          *
               *****************************************************

Recomputing exchange energy using gridx3       ... done (    7.836 sec)
Old exchange energy                            :    -35.056505405 Eh
New exchange energy                            :    -35.056500417 Eh
Exchange energy change after final integration :      0.000004987 Eh
Total energy after final integration           :   -908.771270346 Eh
             **** ENERGY FILE WAS UPDATED (orca.en.tmp) ****

----------------
TOTAL SCF ENERGY
----------------

Total Energy       :       -908.77127034646821 Eh          -24728.92346 eV

Components:
Nuclear Repulsion  :       1419.15773678414212 Eh           38617.24528 eV
Electronic Energy  :      -2327.92901211806202 Eh          -63346.16888 eV
One Electron Energy:      -4055.12553034638677 Eh         -110345.57554 eV
Two Electron Energy:       1727.19651822832452 Eh           46999.40666 eV

Virial components:
Potential Energy   :      -1814.73325709990695 Eh          -49381.40243 eV
Kinetic Energy     :        905.96198675343862 Eh           24652.47897 eV
Virial Ratio       :          2.00310088462221

DFT components:
N(Alpha)           :       67.000041427001 electrons
N(Beta)            :       65.000009378760 electrons
N(Total)           :      132.000050805761 electrons
E(XC)              :      -86.310237886926 Eh       

---------------
SCF CONVERGENCE
---------------

  Last Energy change         ...    1.2178e-09  Tolerance :   1.0000e-08
  Last MAX-Density change    ...    5.6736e-04  Tolerance :   1.0000e-07
  Last RMS-Density change    ...    1.5774e-06  Tolerance :   5.0000e-09
  Last DIIS Error            ...    2.6318e-03  Tolerance :   5.0000e-07
  Last Orbital Gradient      ...    2.0352e-06  Tolerance :   1.0000e-05
  Last Orbital Rotation      ...    1.0478e-05  Tolerance :   1.0000e-05


----------------------
UHF SPIN CONTAMINATION
----------------------

Warning: in a DFT calculation there is little theoretical justification to 
         calculate <S**2> as in Hartree-Fock theory. We will do it anyways
         but you should keep in mind that the values have only limited relevance

Expectation value of <S**2>     :     2.012898
Ideal value S*(S+1) for S=1.0   :     2.000000
Deviation                       :     0.012898

----------------
ORBITAL ENERGIES
----------------
                 SPIN UP ORBITALS
  NO   OCC          E(Eh)            E(eV) 
   0   1.0000     -19.337034      -526.1874 
   1   1.0000     -19.331906      -526.0479 
   2   1.0000     -19.324878      -525.8567 
   3   1.0000     -19.316111      -525.6181 
   4   1.0000     -14.565336      -396.3430 
   5   1.0000     -14.564366      -396.3166 
   6   1.0000     -14.562752      -396.2726 
   7   1.0000     -14.559056      -396.1720 
   8   1.0000     -10.509074      -285.9665 
   9   1.0000     -10.503951      -285.8270 
  10   1.0000     -10.483780      -285.2781 
  11   1.0000     -10.481526      -285.2168 
  12   1.0000     -10.446798      -284.2718 
  13   1.0000     -10.446446      -284.2623 
  14   1.0000     -10.420245      -283.5493 
  15   1.0000     -10.420034      -283.5435 
  16   1.0000     -10.376606      -282.3618 
  17   1.0000     -10.374999      -282.3181 
  18   1.0000      -1.223800       -33.3013 
  19   1.0000      -1.218588       -33.1595 
  20   1.0000      -1.200366       -32.6636 
  21   1.0000      -1.195856       -32.5409 
  22   1.0000      -1.122180       -30.5361 
  23   1.0000      -1.099705       -29.9245 
  24   1.0000      -1.068599       -29.0780 
  25   1.0000      -1.059432       -28.8286 
  26   1.0000      -0.989118       -26.9153 
  27   1.0000      -0.957740       -26.0614 
  28   1.0000      -0.898136       -24.4395 
  29   1.0000      -0.844957       -22.9924 
  30   1.0000      -0.831379       -22.6230 
  31   1.0000      -0.803145       -21.8547 
  32   1.0000      -0.787202       -21.4209 
  33   1.0000      -0.786327       -21.3970 
  34   1.0000      -0.705571       -19.1996 
  35   1.0000      -0.698753       -19.0140 
  36   1.0000      -0.694281       -18.8923 
  37   1.0000      -0.679375       -18.4867 
  38   1.0000      -0.654889       -17.8204 
  39   1.0000      -0.640296       -17.4233 
  40   1.0000      -0.627448       -17.0737 
  41   1.0000      -0.604779       -16.4569 
  42   1.0000      -0.598021       -16.2730 
  43   1.0000      -0.589100       -16.0302 
  44   1.0000      -0.579717       -15.7749 
  45   1.0000      -0.577574       -15.7166 
  46   1.0000      -0.568233       -15.4624 
  47   1.0000      -0.563876       -15.3438 
  48   1.0000      -0.560375       -15.2486 
  49   1.0000      -0.558597       -15.2002 
  50   1.0000      -0.552580       -15.0365 
  51   1.0000      -0.548111       -14.9149 
  52   1.0000      -0.533505       -14.5174 
  53   1.0000      -0.528301       -14.3758 
  54   1.0000      -0.516968       -14.0674 
  55   1.0000      -0.511149       -13.9091 
  56   1.0000      -0.495359       -13.4794 
  57   1.0000      -0.423993       -11.5374 
  58   1.0000      -0.422601       -11.4995 
  59   1.0000      -0.413014       -11.2387 
  60   1.0000      -0.404951       -11.0193 
  61   1.0000      -0.401065       -10.9135 
  62   1.0000      -0.394392       -10.7319 
  63   1.0000      -0.390125       -10.6158 
  64   1.0000      -0.383259       -10.4290 
  65   1.0000      -0.347424        -9.4539 
  66   1.0000      -0.334108        -9.0915 
  67   0.0000       0.007472         0.2033 
  68   0.0000       0.027842         0.7576 
  69   0.0000       0.032312         0.8792 
  70   0.0000       0.034440         0.9371 
  71   0.0000       0.054249         1.4762 
  72   0.0000       0.054776         1.4905 
  73   0.0000       0.059661         1.6235 
  74   0.0000       0.061868         1.6835 
  75   0.0000       0.063153         1.7185 
  76   0.0000       0.068992         1.8774 
  77   0.0000       0.074799         2.0354 

                 SPIN DOWN ORBITALS
  NO   OCC          E(Eh)            E(eV) 
   0   1.0000     -19.333230      -526.0839 
   1   1.0000     -19.327893      -525.9387 
   2   1.0000     -19.324612      -525.8494 
   3   1.0000     -19.316097      -525.6177 
   4   1.0000     -14.564504      -396.3203 
   5   1.0000     -14.564108      -396.3095 
   6   1.0000     -14.561993      -396.2520 
   7   1.0000     -14.559073      -396.1725 
   8   1.0000     -10.509087      -285.9668 
   9   1.0000     -10.503998      -285.8283 
  10   1.0000     -10.484800      -285.3059 
  11   1.0000     -10.482524      -285.2440 
  12   1.0000     -10.447054      -284.2788 
  13   1.0000     -10.446027      -284.2509 
  14   1.0000     -10.408804      -283.2380 
  15   1.0000     -10.407923      -283.2140 
  16   1.0000     -10.377211      -282.3783 
  17   1.0000     -10.375566      -282.3335 
  18   1.0000      -1.222176       -33.2571 
  19   1.0000      -1.217006       -33.1164 
  20   1.0000      -1.195756       -32.5382 
  21   1.0000      -1.191295       -32.4168 
  22   1.0000      -1.119561       -30.4648 
  23   1.0000      -1.097596       -29.8671 
  24   1.0000      -1.066770       -29.0283 
  25   1.0000      -1.057886       -28.7865 
  26   1.0000      -0.976884       -26.5824 
  27   1.0000      -0.940606       -25.5952 
  28   1.0000      -0.892476       -24.2855 
  29   1.0000      -0.839473       -22.8432 
  30   1.0000      -0.822261       -22.3748 
  31   1.0000      -0.798347       -21.7241 
  32   1.0000      -0.785424       -21.3725 
  33   1.0000      -0.784882       -21.3577 
  34   1.0000      -0.701702       -19.0943 
  35   1.0000      -0.691173       -18.8078 
  36   1.0000      -0.687759       -18.7149 
  37   1.0000      -0.670960       -18.2578 
  38   1.0000      -0.643947       -17.5227 
  39   1.0000      -0.636040       -17.3075 
  40   1.0000      -0.623860       -16.9761 
  41   1.0000      -0.599923       -16.3247 
  42   1.0000      -0.591107       -16.0848 
  43   1.0000      -0.583607       -15.8808 
  44   1.0000      -0.573202       -15.5976 
  45   1.0000      -0.568123       -15.4594 
  46   1.0000      -0.563502       -15.3337 
  47   1.0000      -0.561513       -15.2795 
  48   1.0000      -0.554024       -15.0758 
  49   1.0000      -0.548079       -14.9140 
  50   1.0000      -0.546337       -14.8666 
  51   1.0000      -0.538973       -14.6662 
  52   1.0000      -0.528235       -14.3740 
  53   1.0000      -0.517794       -14.0899 
  54   1.0000      -0.511153       -13.9092 
  55   1.0000      -0.504173       -13.7192 
  56   1.0000      -0.489230       -13.3126 
  57   1.0000      -0.420408       -11.4399 
  58   1.0000      -0.418387       -11.3849 
  59   1.0000      -0.407399       -11.0859 
  60   1.0000      -0.393581       -10.7099 
  61   1.0000      -0.390867       -10.6360 
  62   1.0000      -0.389926       -10.6104 
  63   1.0000      -0.386181       -10.5085 
  64   1.0000      -0.376584       -10.2474 
  65   0.0000      -0.064971        -1.7680 
  66   0.0000      -0.044896        -1.2217 
  67   0.0000       0.006889         0.1875 
  68   0.0000       0.027618         0.7515 
  69   0.0000       0.032003         0.8708 
  70   0.0000       0.034245         0.9318 
  71   0.0000       0.054358         1.4791 
  72   0.0000       0.055654         1.5144 
  73   0.0000       0.061320         1.6686 
  74   0.0000       0.062504         1.7008 
  75   0.0000       0.065632         1.7859 
*Only the first 10 virtual orbitals were printed.

                    ********************************
                    * MULLIKEN POPULATION ANALYSIS *
                    ********************************

--------------------------------------------
MULLIKEN ATOMIC CHARGES AND SPIN POPULATIONS
--------------------------------------------
   0 O :   -0.668529    0.147287
   1 O :   -0.646580    0.134418
   2 O :   -0.661088    0.000596
   3 O :   -0.645373    0.009137
   4 N :   -0.166947    0.020044
   5 N :   -0.299055    0.029295
   6 N :   -0.070870    0.029681
   7 N :    0.045166    0.011587
   8 C :    0.006077    0.419255
   9 C :    0.108723    0.437700
  10 C :    0.479999    0.122345
  11 C :    0.629426    0.169613
  12 C :   -1.644090   -0.004211
  13 C :   -1.525343    0.014781
  14 C :    0.830914    0.158207
  15 C :    0.295298    0.145761
  16 C :    0.488715    0.000328
  17 C :    0.339948   -0.004229
  18 H :    0.410818    0.037697
  19 H :    0.606436    0.028996
  20 H :    0.363822    0.012410
  21 H :    0.248791    0.030084
  22 H :    0.348311    0.000975
  23 H :    0.344234    0.023733
  24 H :    0.214760    0.010788
  25 H :    0.385887    0.014569
  26 H :    0.010983   -0.000145
  27 H :    0.084499    0.002150
  28 H :    0.041803   -0.002778
  29 H :    0.043265   -0.000076
Sum of atomic charges         :   -0.0000000
Sum of atomic spin populations:    2.0000000

-----------------------------------------------------
MULLIKEN REDUCED ORBITAL CHARGES AND SPIN POPULATIONS
-----------------------------------------------------
CHARGE
  0 O s       :     4.083534  s :     4.083534
      pz      :     1.625753  p :     4.551000
      px      :     1.342763
      py      :     1.582484
      dz2     :     0.002857  d :     0.032103
      dxz     :     0.007318
      dyz     :     0.002754
      dx2y2   :     0.010104
      dxy     :     0.009071
      f0      :     0.000212  f :     0.001891
      f+1     :     0.000239
      f-1     :     0.000089
      f+2     :     0.000129
      f-2     :     0.000265
      f+3     :     0.000533
      f-3     :     0.000425

  1 O s       :     4.086746  s :     4.086746
      pz      :     1.326540  p :     4.526297
[...]
[1739897200.787246] [ohm:269161:0]        ib_iface.c:1059 UCX  ERROR ibv_create_cq(cqe=256) failed: Connection timed out
[1739897200.787403] [ohm:269188:0]        ib_iface.c:1059 UCX  ERROR ibv_create_cq(cqe=256) failed: Connection timed out
[1739897200.788131] [ohm:269225:0]        ib_iface.c:1059 UCX  ERROR ibv_create_cq(cqe=256) failed: Connection timed out
[1739897200.788849] [ohm:269218:0]        ib_iface.c:1059 UCX  ERROR ibv_create_cq(cqe=256) failed: Connection timed out
[1739897200.792499] [ohm:269150:0]        ib_iface.c:1059 UCX  ERROR ibv_create_cq(cqe=256) failed: Connection timed out
[1739897200.792712] [ohm:269141:0]        ib_iface.c:1059 UCX  ERROR ibv_create_cq(cqe=256) failed: Connection timed out
[1739897200.794865] [ohm:269133:0]        ib_iface.c:1059 UCX  ERROR ibv_create_cq(cqe=256) failed: Connection timed out
[1739897200.796039] [ohm:269257:0]        ib_iface.c:1059 UCX  ERROR ibv_create_cq(cqe=256) failed: Connection timed out
[1739897200.798983] [ohm:269173:0]        ib_iface.c:1059 UCX  ERROR ibv_create_cq(cqe=256) failed: Connection timed out
[1739897200.799373] [ohm:269205:0]        ib_iface.c:1059 UCX  ERROR ibv_create_cq(cqe=256) failed: Connection timed out
[1739897200.799446] [ohm:269136:0]        ib_iface.c:1059 UCX  ERROR ibv_create_cq(cqe=256) failed: Connection timed out


           ************************************************************
           *        Program running with 64 parallel MPI-processes    *
           *              working on a common directory               *
           ************************************************************

------------------------------------------------------------------------------
                              ORCA PROPERTY CALCULATIONS
------------------------------------------------------------------------------

GBWName                                 ... orca.gbw
Number of atoms                         ...     30
Number of basis functions               ...    882
Max core memory                         ...   1024 MB

Electric properties:
Dipole moment                           ... YES
Quadrupole moment                       ...  NO
Static polarizability (Dipole/Dipole)   ...  NO
Static polarizability (Dipole/Quad.)    ...  NO
Static polarizability (Quad./Quad.)     ...  NO
Static polarizability (Velocity)        ...  NO

Atomic electric properties:
Dipole moment                           ...  NO
Quadrupole moment                       ...  NO
Static polarizability                   ...  NO

Choice of electric origin               ... Center of mass
Position of electric origin             ...     0.021109    -0.033653     0.049192

General magnetic properties:
Magnetizability                         ...  NO

EPR properties:
g-Tensor (aka g-matrix)                 ...  NO
Zero-Field splitting spin-orbit         ...  NO
Zero-field splitting spin-spin          ...  NO
Hyperfine couplings                     ...  NO (   0 nuclei)
Quadrupole couplings                    ...  NO (   0 nuclei)
Contact density                         ...  NO (   0 nuclei)

NMR properties:
Chemical shifts                         ...  NO (   0 nuclei)
Spin-rotation constants                 ...  NO (   0 nuclei)
Spin-spin couplings                     ...  NO (   0 nuclei,    0 pairs)

Choice of magnetic origin               ... GIAO
Position of magnetic origin             ...     0.000000     0.000000     0.000000

Properties with geometric perturbations:
SCF Hessian                             ...  NO
IR spectrum                             ...  NO
VCD spectrum                            ...  NO
X-ray spectroscopy properties:
SCF XES/XAS/RIXS spectra                ...  NO


-------------
DIPOLE MOMENT
-------------

Method             : SCF
Type of density    : Electron Density
Multiplicity       :   3
Irrep              :   0
Energy             :  -908.7712703464682136 Eh
Relativity type    : 
Basis              : AO
                                X                 Y                 Z
Electronic contribution:     -1.856682435      -9.950484787      -6.647464440
Nuclear contribution   :      1.811518391      11.371736522       8.976316874
                        -----------------------------------------
Total Dipole Moment    :     -0.045164044       1.421251736       2.328852434
                        -----------------------------------------
Magnitude (a.u.)       :      2.728653504
Magnitude (Debye)      :      6.935686020



--------------------
Rotational spectrum 
--------------------
 
Rotational constants in cm-1:             0.020170             0.012427             0.010740 
Rotational constants in MHz :           604.689429           372.552715           321.978243 

Dipole components along the rotational axes: 
x,y,z [a.u.] :     0.075208    -1.988683     1.866824 
x,y,z [Debye]:     0.191163    -5.054831     4.745091 

 

-------------
DIPOLE MOMENT
-------------

Method             : TDA/CIS
Type of density    : Electron Density
Level              : Relaxed density
State              :   1
Multiplicity       :   3
Irrep              :   0
Energy             :     0.0000000000000000 Eh
Relativity type    : 
Basis              : AO
                                X                 Y                 Z
Electronic contribution:     -1.966112066      -9.909327411      -6.564213192
Nuclear contribution   :      1.811518391      11.371736522       8.976316874
                        -----------------------------------------
Total Dipole Moment    :     -0.154593675       1.462409112       2.412103681
                        -----------------------------------------
Magnitude (a.u.)       :      2.825028103
Magnitude (Debye)      :      7.180650783



--------------------
Rotational spectrum 
--------------------
 
Rotational constants in cm-1:             0.020170             0.012427             0.010740 
Rotational constants in MHz :           604.689429           372.552715           321.978243 

Dipole components along the rotational axes: 
x,y,z [a.u.] :    -0.028816    -2.047130     1.946589 
x,y,z [Debye]:    -0.073245    -5.203392     4.947837 

 

Dipole moment calculation done in   0.2 sec 

Maximum memory used throughout the entire PROP-calculation: 81.0 MB
[1739897203.240155] [ohm:269464:0]        ib_iface.c:1059 UCX  ERROR ibv_create_cq(cqe=256) failed: Connection timed out
[1739897203.241774] [ohm:269461:0]        ib_iface.c:1059 UCX  ERROR ibv_create_cq(cqe=256) failed: Connection timed out
[1739897203.241950] [ohm:269467:0]        ib_iface.c:1059 UCX  ERROR ibv_create_cq(cqe=256) failed: Connection timed out
[1739897203.255891] [ohm:269462:0]        ib_iface.c:1059 UCX  ERROR ibv_create_cq(cqe=256) failed: Connection timed out
[1739897203.288065] [ohm:269478:0]        ib_iface.c:1059 UCX  ERROR ibv_create_cq(cqe=256) failed: Connection timed out
[1739897203.298736] [ohm:269480:0]        ib_iface.c:1059 UCX  ERROR ibv_create_cq(cqe=256) failed: Connection timed out
[1739897203.305905] [ohm:269474:0]        ib_iface.c:1059 UCX  ERROR ibv_create_cq(cqe=256) failed: Connection timed out
[1739897203.306514] [ohm:269598:0]        ib_iface.c:1059 UCX  ERROR ibv_create_cq(cqe=256) failed: Connection timed out
[1739897203.306740] [ohm:269479:0]        ib_iface.c:1059 UCX  ERROR ibv_create_cq(cqe=256) failed: Connection timed out
[1739897203.309400] [ohm:269460:0]        ib_iface.c:1059 UCX  ERROR ibv_create_cq(cqe=256) failed: Connection timed out
[1739897203.317069] [ohm:269490:0]        ib_iface.c:1059 UCX  ERROR ibv_create_cq(cqe=256) failed: Connection timed out
[1739897203.317802] [ohm:269481:0]        ib_iface.c:1059 UCX  ERROR ibv_create_cq(cqe=256) failed: Connection timed out
[1739897203.319183] [ohm:269468:0]        ib_iface.c:1059 UCX  ERROR ibv_create_cq(cqe=256) failed: Connection timed out
[1739897203.353498] [ohm:269482:0]        ib_iface.c:1059 UCX  ERROR ibv_create_cq(cqe=256) failed: Connection timed out
[1739897203.360189] [ohm:269470:0]        ib_iface.c:1059 UCX  ERROR ibv_create_cq(cqe=256) failed: Connection timed out
[1739897203.372212] [ohm:269477:0]        ib_iface.c:1059 UCX  ERROR ibv_create_cq(cqe=256) failed: Connection timed out
[1739897203.388108] [ohm:269463:0]        ib_iface.c:1059 UCX  ERROR ibv_create_cq(cqe=256) failed: Connection timed out
[1739897203.423675] [ohm:269471:0]        ib_iface.c:1059 UCX  ERROR ibv_create_cq(cqe=256) failed: Connection timed out
[1739897203.431855] [ohm:269476:0]        ib_iface.c:1059 UCX  ERROR ibv_create_cq(cqe=256) failed: Connection timed out
[1739897203.433237] [ohm:269459:0]        ib_iface.c:1059 UCX  ERROR ibv_create_cq(cqe=256) failed: Connection timed out
[1739897203.434368] [ohm:269472:0]        ib_iface.c:1059 UCX  ERROR ibv_create_cq(cqe=256) failed: Connection timed out
[1739897203.453595] [ohm:269538:0]        ib_iface.c:1059 UCX  ERROR ibv_create_cq(cqe=256) failed: Connection timed out
[1739897203.462827] [ohm:269520:0]        ib_iface.c:1059 UCX  ERROR ibv_create_cq(cqe=256) failed: Connection timed out
[1739897203.479612] [ohm:269465:0]        ib_iface.c:1059 UCX  ERROR ibv_create_cq(cqe=256) failed: Connection timed out
[1739897203.483054] [ohm:269567:0]        ib_iface.c:1059 UCX  ERROR ibv_create_cq(cqe=256) failed: Connection timed out
[1739897203.487404] [ohm:269473:0]        ib_iface.c:1059 UCX  ERROR ibv_create_cq(cqe=256) failed: Connection timed out
[1739897203.491588] [ohm:269466:0]        ib_iface.c:1059 UCX  ERROR ibv_create_cq(cqe=256) failed: Connection timed out
[1739897203.493830] [ohm:269511:0]        ib_iface.c:1059 UCX  ERROR ibv_create_cq(cqe=256) failed: Connection timed out
[1739897203.497720] [ohm:269469:0]        ib_iface.c:1059 UCX  ERROR ibv_create_cq(cqe=256) failed: Connection timed out
[1739897203.498096] [ohm:269475:0]        ib_iface.c:1059 UCX  ERROR ibv_create_cq(cqe=256) failed: Connection timed out
[1739897203.500607] [ohm:269485:0]        ib_iface.c:1059 UCX  ERROR ibv_create_cq(cqe=256) failed: Connection timed out
[1739897203.501408] [ohm:269574:0]        ib_iface.c:1059 UCX  ERROR ibv_create_cq(cqe=256) failed: Connection timed out
[1739897203.504360] [ohm:269572:0]        ib_iface.c:1059 UCX  ERROR ibv_create_cq(cqe=256) failed: Connection timed out
[1739897203.509236] [ohm:269498:0]        ib_iface.c:1059 UCX  ERROR ibv_create_cq(cqe=256) failed: Connection timed out
[1739897203.516325] [ohm:269534:0]        ib_iface.c:1059 UCX  ERROR ibv_create_cq(cqe=256) failed: Connection timed out
[1739897203.519647] [ohm:269549:0]        ib_iface.c:1059 UCX  ERROR ibv_create_cq(cqe=256) failed: Connection timed out
[1739897203.520295] [ohm:269487:0]        ib_iface.c:1059 UCX  ERROR ibv_create_cq(cqe=256) failed: Connection timed out
[1739897203.523102] [ohm:269545:0]        ib_iface.c:1059 UCX  ERROR ibv_create_cq(cqe=256) failed: Connection timed out
[1739897203.523357] [ohm:269556:0]        ib_iface.c:1059 UCX  ERROR ibv_create_cq(cqe=256) failed: Connection timed out
[1739897203.527758] [ohm:269494:0]        ib_iface.c:1059 UCX  ERROR ibv_create_cq(cqe=256) failed: Connection timed out
[1739897203.527758] [ohm:269595:0]        ib_iface.c:1059 UCX  ERROR ibv_create_cq(cqe=256) failed: Connection timed out
[1739897203.529224] [ohm:269548:0]        ib_iface.c:1059 UCX  ERROR ibv_create_cq(cqe=256) failed: Connection timed out
[1739897203.542494] [ohm:269564:0]        ib_iface.c:1059 UCX  ERROR ibv_create_cq(cqe=256) failed: Connection timed out
[1739897203.546628] [ohm:269570:0]        ib_iface.c:1059 UCX  ERROR ibv_create_cq(cqe=256) failed: Connection timed out
[1739897203.548483] [ohm:269486:0]        ib_iface.c:1059 UCX  ERROR ibv_create_cq(cqe=256) failed: Connection timed out
[1739897203.554493] [ohm:269554:0]        ib_iface.c:1059 UCX  ERROR ibv_create_cq(cqe=256) failed: Connection timed out
[1739897203.555362] [ohm:269593:0]        ib_iface.c:1059 UCX  ERROR ibv_create_cq(cqe=256) failed: Connection timed out
[1739897203.559150] [ohm:269542:0]        ib_iface.c:1059 UCX  ERROR ibv_create_cq(cqe=256) failed: Connection timed out
[1739897203.568085] [ohm:269587:0]        ib_iface.c:1059 UCX  ERROR ibv_create_cq(cqe=256) failed: Connection timed out
[1739897203.568850] [ohm:269561:0]        ib_iface.c:1059 UCX  ERROR ibv_create_cq(cqe=256) failed: Connection timed out
[1739897203.568910] [ohm:269524:0]        ib_iface.c:1059 UCX  ERROR ibv_create_cq(cqe=256) failed: Connection timed out
[1739897203.569926] [ohm:269529:0]        ib_iface.c:1059 UCX  ERROR ibv_create_cq(cqe=256) failed: Connection timed out
[1739897203.570300] [ohm:269591:0]        ib_iface.c:1059 UCX  ERROR ibv_create_cq(cqe=256) failed: Connection timed out
[1739897203.576439] [ohm:269483:0]        ib_iface.c:1059 UCX  ERROR ibv_create_cq(cqe=256) failed: Connection timed out
[1739897203.576945] [ohm:269507:0]        ib_iface.c:1059 UCX  ERROR ibv_create_cq(cqe=256) failed: Connection timed out
[1739897203.579127] [ohm:269508:0]        ib_iface.c:1059 UCX  ERROR ibv_create_cq(cqe=256) failed: Connection timed out
[1739897203.579128] [ohm:269543:0]        ib_iface.c:1059 UCX  ERROR ibv_create_cq(cqe=256) failed: Connection timed out
[1739897203.579220] [ohm:269606:0]        ib_iface.c:1059 UCX  ERROR ibv_create_cq(cqe=256) failed: Connection timed out
[1739897203.579324] [ohm:269584:0]        ib_iface.c:1059 UCX  ERROR ibv_create_cq(cqe=256) failed: Connection timed out
[1739897203.581359] [ohm:269503:0]        ib_iface.c:1059 UCX  ERROR ibv_create_cq(cqe=256) failed: Connection timed out
[1739897203.581383] [ohm:269514:0]        ib_iface.c:1059 UCX  ERROR ibv_create_cq(cqe=256) failed: Connection timed out
[1739897203.582164] [ohm:269576:0]        ib_iface.c:1059 UCX  ERROR ibv_create_cq(cqe=256) failed: Connection timed out
[1739897203.582349] [ohm:269613:0]        ib_iface.c:1059 UCX  ERROR ibv_create_cq(cqe=256) failed: Connection timed out
[1739897203.583090] [ohm:269516:0]        ib_iface.c:1059 UCX  ERROR ibv_create_cq(cqe=256) failed: Connection timed out

--------------------------------
SUGGESTED CITATIONS FOR THIS RUN
--------------------------------

Below you find a list of papers that are relevant to this ORCA run
We neither can nor want to force you to cite these papers, but we appreciate if you do
You receive ORCA, which is the product of decades of hard work by many enthusiastic individuals, for free
The only thing we kindly ask in return is that you cite our papers,
We deeply appreciate it, if you show your appreciation for ORCA by not just citing the generic ORCA reference.

Please note that relegating all ORCA citations to the supporting information does *not* help us.
SI sections are not indexed - citations you put there will not count into any citation statistics
But we need these citations in order to attract the funding resources that allow us to do what we are doing

Therefore, if you are a happy ORCA user, please consider citing a few of the papers listed below in the main body of your paper

In addition to the list printed below, the program has created the file orca.bibtex that contains the list in bibtex format
You can import this file easily into all common literature databanks and citation aid programs


List of essential papers. We consider these as the minimum necessary citations

  1. Neese,F.
     Software update: the ORCA program system, version 5.0
     WIRES Comput. Molec. Sci., 2022 12(1)e1606
     doi.org/10.1002/wcms.1606

List of papers to cite with high priority. The work reported in these papers was absolutely
necessary for this run to complete.
Our perspective: the developers of density functionals and basis sets usually get cited in chemistry papers
Good! But without the algorithms to do something with them, the functionals or basis sets would not do anything.
Hence, in our opinion, the algorithm design and method developments papers are equally worthy of getting cited

  1. Neese,F.; Olbrich,G.
     Efficient use of the resolution of the identity approximation in time-dependent density functional calculations with hybrid density functionals
     Chem. Phys. Lett., 2002 362 170-178
     doi.org/10.1016/s0009-2614(02)01053-9
  2. Neese,F.
     An improvement of the resolution of the identity approximation for the formation of the Coulomb matrix
     J. Comp. Chem., 2003 24(14)1740-1747
     doi.org/10.1002/jcc.10318
  3. Neese,F.; Wennmohs,F.; Hansen,A.; Becker,U.
     Efficient, approximate and parallel Hartree-Fock and hybrid DFT calculations. A 'chain-of-spheres' algorithm for the Hartree-Fock exchange
     Chem. Phys., 2009 356(1-3)98-109
     doi.org/10.1016/j.chemphys.2008.10.036
  4. Petrenko,T.; Kossmann,S.; Neese,F.
     Efficient time-dependent density functional theory approximations for hybrid density functionals: Analytical gradients and parallelization
     J. Chem. Phys., 2011 134 054116
     doi.org/10.1063/1.3533441
  5. Helmich-Paris,B.; de Souza,B.; Neese,F.; Izsák,R.
     An improved chain of spheres for exchange algorithm
     J. Chem. Phys., 2021 155 104109
     doi.org/doi: 10.1063/5.0058766.
  6. Neese,F.
     The SHARK Integral Generation and Digestion System
     J. Comp. Chem., 2022  1-16
     doi.org/10.1002/jcc.26942
  7. Lehtola,S.; Steigemann,C.; Oliveira,M.; Marques,M.
     Recent developments in Libxc - A comprehensive library of functionals for density functional theory
     Software X, 2018 7 
     doi.org/10.1016/j.softx.2017.11.002
  8. Grimme,S.; Antony,J.; Ehrlich,S.; Krieg,H.
     A consistent and accurate ab initio parametrization of density functional dispersion correction (DFT-D) for the 94 elements H-Pu
     J. Chem. Phys., 2010 132 154104-XXXX
     doi.org/10.1063/1.3382344
  9. Grimme,S.; Ehrlich,S.; Goerigk,L.
     Effect of the damping function in dispersion corrected density functional theory
     J. Comput. Chem., 2011 32(7)1456-1465
     doi.org/10.1002/jcc.21759

List of suggested additional citations. These are papers that are important in the 'surrounding' of 
of this run, or papers that preceded the highly important papers. If you like your results we are grateful for a citation.

  1. Izsak,R.; Neese,F.
     An overlap fitted chain of spheres exchange method
     J. Chem. Phys., 2011 135 144105
     doi.org/10.1063/1.3646921
  2. Izsak,R.; Hansen,A.; Neese,F.
     The resolution of identity and chain of spheres approximations for the LPNO-CCSD singles Fock term
     Molec. Phys., 2012 110 2413-2417
     doi.org/10.1080/00268976.2012.687466
  3. Neese,F.
     The ORCA program system
     WIRES Comput. Molec. Sci., 2012 2(1)73-78
     doi.org/10.1002/wcms.81
  4. Izsak,R.; Neese,F.; Klopper,W.
     Robust fitting techniques in the chain of spheres approximation to the Fock exchange: The role of the complementary space
     J. Chem. Phys., 2013 139 
     doi.org/10.1063/1.4819264
  5. Neese,F.
     Software update: the ORCA program system, version 4.0
     WIRES Comput. Molec. Sci., 2018 8(1)1-6
     doi.org/10.1002/wcms.1327
  6. Neese,F.; Wennmohs,F.; Becker,U.; Riplinger,C.
     The ORCA quantum chemistry program package
     J. Chem. Phys., 2020 152 Art. No. L224108
     doi.org/10.1063/5.0004608

List of optional additional citations

  1. Neese,F.
     Approximate second-order SCF convergence for spin unrestricted wavefunctions
     Chem. Phys. Lett., 2000 325(1-3)93-98
     doi.org/10.1016/s0009-2614(00)00662-x

Timings for individual modules:

Sum of individual times          ...      260.985 sec (=   4.350 min)
Startup calculation              ...        6.564 sec (=   0.109 min)   2.5 %
SCF iterations                   ...      121.831 sec (=   2.031 min)  46.7 %
Property integrals               ...        4.210 sec (=   0.070 min)   1.6 %
Property calculations            ...        2.820 sec (=   0.047 min)   1.1 %
CIS module                       ...      125.560 sec (=   2.093 min)  48.1 %
                             ****ORCA TERMINATED NORMALLY****
TOTAL RUN TIME: 0 days 0 hours 4 minutes 23 seconds 22 msec
