7
Properties=species:S:1:pos:R:3:momenta:R:3:forces:R:3 Coordinates=T from=T ORCA-job=T orca=T E=T -153.873139603898=T energy=-4182.908760185415 free_energy=-4182.908760185415 stress="-3.2731925701561723e-06 3.719795340850159e-06 2.7380122062930458e-06 3.719795340850159e-06 3.660301902178214e-05 1.92492308582323e-06 2.7380122062930458e-06 1.92492308582323e-06 6.043732563606708e-06" pbc="F F F"
O       -0.34466086       1.30136544       0.04914279      -2.80604020      -0.13086264      -0.10306461      -0.22591211      -3.86217863      -0.24662336
C        0.78825889      -1.16142071      -0.03473219      -0.08338395      -2.18676456      -0.13037347       1.67526224       2.60030712       0.28889343
C       -0.46826369      -0.38368727      -0.02608426       1.98518816       3.90825403       0.02731025       0.41188208       0.93562522       0.33786770
H        1.42503619      -0.92234383       0.86161664       0.10318544      -0.81063131       0.06261906      -0.55268669      -0.84733806      -0.60240546
H        1.41300899      -1.10467682      -0.93310428       0.30481003      -0.88099204      -0.01911800      -0.40099924      -0.57959038       0.14845906
H       -1.05630482      -0.64763040      -0.91011075       0.22541802      -0.13287456       0.11291658      -0.21885919       0.84129261       0.39838563
H       -0.93927315      -0.68876973       0.91077322       0.27082250       0.23387109       0.04971019      -0.68868708       0.91188213      -0.32457701
