
                                 *****************
                                 * O   R   C   A *
                                 *****************

                                            #,                                       
                                            ###                                      
                                            ####                                     
                                            #####                                    
                                            ######                                   
                                           ########,                                 
                                     ,,################,,,,,                         
                               ,,#################################,,                 
                          ,,##########################################,,             
                       ,#########################################, ''#####,          
                    ,#############################################,,   '####,        
                  ,##################################################,,,,####,       
                ,###########''''           ''''###############################       
              ,#####''   ,,,,##########,,,,          '''####'''          '####       
            ,##' ,,,,###########################,,,                        '##       
           ' ,,###''''                  '''############,,,                           
         ,,##''                                '''############,,,,        ,,,,,,###''
      ,#''                                            '''#######################'''  
     '                                                          ''''####''''         
             ,#######,   #######,   ,#######,      ##                                
            ,#'     '#,  ##    ##  ,#'     '#,    #''#        ,####,   ,####,        
            ##       ##  ##   ,#'  ##            #'  '#       #'       #'  '#        
            ##       ##  #######   ##           ,######,      #####,   #    #        
            '#,     ,#'  ##    ##  '#,     ,#' ,#      #,     #,   #   #,  ,#        
             '#######'   ##     ##  '#######'  #'      '#     '####' # '####'        



                #########################################################
                #                        -***-                          #
                #          Department of theory and spectroscopy        #
                #                                                       #
                #                      Frank Neese                      #
                #                                                       #
                #     Directorship, Architecture, Infrastructure        #
                #                    SHARK, DRIVERS                     #
                #        Core code/Algorithms in most modules           #
                #                                                       #
                #        Max Planck Institute fuer Kohlenforschung      #
                #                Kaiser Wilhelm Platz 1                 #
                #                 D-45470 Muelheim/Ruhr                 #
                #                      Germany                          #
                #                                                       #
                #                  All rights reserved                  #
                #                        -***-                          #
                #########################################################


                         Program Version 6.0.0  -   RELEASE  -


 With contributions from (in alphabetic order):
   Daniel Aravena         : Magnetic Suceptibility
   Michael Atanasov       : Ab Initio Ligand Field Theory (pilot matlab implementation)
   Alexander A. Auer      : GIAO ZORA, VPT2 properties, NMR spectrum
   Ute Becker             : All parallelization in ORCA, NUMFREQ, NUMCALC
   Giovanni Bistoni       : ED, misc. LED, open-shell LED, HFLD
   Martin Brehm           : Molecular dynamics
   Dmytro Bykov           : pre 5.0 version of the SCF Hessian
   Marcos Casanova-Páez   : Triplet and SCS-CIS(D). UHF-(DLPNO)-IP/EA/STEOM-CCSD. UHF-CVS-IP/STEOM-CCSD
   Vijay G. Chilkuri      : MRCI spin determinant printing, contributions to CSF-ICE
   Pauline Colinet        : FMM embedding
   Dipayan Datta          : RHF DLPNO-CCSD density
   Achintya Kumar Dutta   : EOM-CC, STEOM-CC
   Nicolas Foglia         : Exact transition moments, OPA infrastructure, MCD improvements
   Dmitry Ganyushin       : Spin-Orbit,Spin-Spin,Magnetic field MRCI
   Miquel Garcia          : C-PCM and meta-GGA Hessian, CCSD/C-PCM, Gaussian charge scheme
   Tiago L. C. Gouveia    : GS-ROHF, GS-ROCIS
   Yang Guo               : DLPNO-NEVPT2, F12-NEVPT2, CIM, IAO-localization
   Andreas Hansen         : Spin unrestricted coupled pair/coupled cluster methods
   Ingolf Harden          : AUTO-CI MPn and infrastructure 
   Benjamin Helmich-Paris : MC-RPA, TRAH-(SCF,CASSCF), AVAS, COSX integrals, SCF dyn. polar.
   Lee Huntington         : MR-EOM, pCC
   Robert Izsak           : Overlap fitted RIJCOSX, COSX-SCS-MP3, EOM
   Riya Kayal             : Wick's Theorem for AUTO-CI, AUTO-CI UHF-CCSDT
   Emily Kempfer          : AUTO-CI, RHF CISDT and CCSDT
   Christian Kollmar      : KDIIS, OOCD, Brueckner-CCSD(T), CCSD density, CASPT2, CASPT2-K, improved NEVPT2
   Axel Koslowski         : Symmetry handling
   Simone Kossmann        : Meta GGA functionals, TD-DFT gradient, OOMP2, (MP2 Hessian; deprecated post 5.0)
   Lucas Lang             : DCDCAS
   Marvin Lechner         : AUTO-CI (C++ implementation), FIC-MRCC
   Spencer Leger          : CASSCF response
   Dagmar Lenk            : GEPOL surface, SMD, ORCA-2-JSON
   Dimitrios Liakos       : Extrapolation schemes; Compound Job, initial MDCI parallelization
   Dimitrios Manganas     : Further ROCIS development; embedding schemes. LFT, Crystal Embedding
   Dimitrios Pantazis     : SARC Basis sets
   Anastasios Papadopoulos: AUTO-CI, single reference methods and gradients
   Taras Petrenko         : pre 6.0 DFT Hessian and TD-DFT gradient, (ASA, deprecated), ECA, 1-Electron XAS/XES, NRVS
   Peter Pinski           : DLPNO-MP2, DLPNO-MP2 Gradient
   Christoph Reimann      : Effective Core Potentials
   Marius Retegan         : Local ZFS, SOC
   Christoph Riplinger    : Optimizer, TS searches, QM/MM, DLPNO-CCSD(T), (RO)-DLPNO pert. Triples
   Michael Roemelt        : Original ROCIS implementation
   Masaaki Saitow         : Open-shell DLPNO-CCSD energy and density
   Barbara Sandhoefer     : DKH picture change effects
   Kantharuban Sivalingam : CASSCF convergence/infrastructure, NEVPT2 and variants, FIC-MRCI
   Bernardo de Souza      : ESD, SOC TD-DFT
   Georgi Stoychev        : AutoAux, RI-MP2 NMR, DLPNO-MP2 response, X2C
   Van Anh Tran           : RI-MP2 g-tensors
   Willem Van den Heuvel  : Paramagnetic NMR
   Zikuan Wang            : NOTCH, Electric field optimization 
   Frank Wennmohs         : Technical directorship and infrastructure
   Hang Xu                : AUTO-CI-Response properties 


 We gratefully acknowledge several colleagues who have allowed us to
 interface, adapt or use parts of their codes:
   Stefan Grimme, W. Hujo, H. Kruse, P. Pracht,  : VdW corrections, initial TS optimization,
                  C. Bannwarth, S. Ehlert,         DFT functionals, gCP, sTDA/sTD-DF
                  L. Wittmann, M. Mueller
   Ed Valeev, F. Pavosevic, A. Kumar             : LibInt (2-el integral package), F12 methods
   Garnet Chan, S. Sharma, J. Yang, R. Olivares  : DMRG
   Ulf Ekstrom                                   : XCFun DFT Library
   Mihaly Kallay                                 : mrcc  (arbitrary order and MRCC methods)
   Frank Weinhold                                : gennbo (NPA and NBO analysis)
   Simon Mueller                                 : openCOSMO-RS
   Christopher J. Cramer and Donald G. Truhlar   : smd solvation model
   Lars Goerigk                                  : TD-DFT with DH, B97 family of functionals
   V. Asgeirsson, H. Jonsson                     : NEB implementation
   FAccTs GmbH                                   : IRC, NEB, NEB-TS, DLPNO-Multilevel, CI-OPT
                                                   MM, QMMM, 2- and 3-layer-ONIOM, Crystal-QMMM,
                                                   LR-CPCM, SF, NACMEs, symmetry and pop. for TD-DFT,
                                                   nearIR, NL-DFT gradient (VV10), updates on ESD,
                                                   ML-optimized integration grids, MBIS, APM,
                                                   GOAT, DOCKER, SOLVATOR, interface openCOSMO-RS
   S Lehtola, MJT Oliveira, MAL Marques          : LibXC Library
   Liviu Ungur et al                             : ANISO software


 Your calculation uses the libint2 library for the computation of 2-el integrals
 For citations please refer to: http://libint.valeyev.net

 Your ORCA version has been built with support for libXC version: 6.2.2
 For citations please refer to: https://libxc.gitlab.io

 This ORCA versions uses:
   CBLAS   interface :  Fast vector & matrix operations
   LAPACKE interface :  Fast linear algebra routines
   SCALAPACK package :  Parallel linear algebra routines
   Shared memory     :  Shared parallel matrices
   BLAS/LAPACK       :  OpenBLAS 0.3.27  USE64BITINT DYNAMIC_ARCH NO_AFFINITY Zen SINGLE_THREADED
        Core in use  :  Zen
   Copyright (c) 2011-2014, The OpenBLAS Project


Your calculation utilizes the atom-pairwise dispersion correction
with the Becke-Johnson damping scheme (D3BJ)


Warning: RI is on but no J-basis has been assigned. Assigning Def2/J (nothing to worry about!)
================================================================================

----- Orbital basis set information -----
Your calculation utilizes the basis: def2-TZVPPD
   F. Weigend and R. Ahlrichs, Phys. Chem. Chem. Phys. 7, 3297 (2005).
   D. Rappoport and F. Furche, J. Chem. Phys. 133, 134105 (2010)
   D. Rappoport, J. Chem. Phys. 155, 124102 (2021).

----- AuxJ basis set information -----
Your calculation utilizes the auxiliary basis: def2/J
   F. Weigend, Phys. Chem. Chem. Phys. 8, 1057 (2006).

================================================================================
                                        WARNINGS
                       Please study these warnings very carefully!
================================================================================

Using LibXC functional ID 531 : wB97M-V exchange-correlation functional
[ 1]  N. Mardirossian and M. Head-Gordon.,  J. Chem. Phys. 144, 214110 (2016)
Using LibXC functional ID 531 : wB97M-V exchange-correlation functional
[ 1]  N. Mardirossian and M. Head-Gordon.,  J. Chem. Phys. 144, 214110 (2016)

WARNING: B97M-V or wB97M-V functional requested.
  ===> : libXC variant has now been activated.
         Any manually given DFX/HFX/RangeSep scaling parameters are IGNORED!

Your calculation utilizes LibXC
 by S Lehtola, C Steigemann, MJT Oliveira & MAL Marques
Please cite in your paper:
 S Lehtola, C Steigemann, MJT Oliveira & MAL Marques, SoftwareX, 7, (2018), 1.
   


WARNING: your system is open-shell and RHF/RKS was chosen
  ===> : WILL SWITCH to UHF/UKS

INFO   : Checking CIS options ...

WARNING: CIS/ROCIS methods need fully converged wavefunctions
  ===> : Setting SCFConvForced true
         You can overwrite this default with %scf ConvForced false 


================================================================================
                                       INPUT FILE
================================================================================
NAME = orca.inp
|  1> ! Engrad def2-TZVPPD wB97M-D3BJ 
|  2> %pal nprocs 8 end%pal nprocs 64 end 
|  3> %tddft Nroots 2 Iroot 1 
|  4> sf true 
|  5> end 
|  6> *xyz 0 3 
|  7> O   4.03866623 0.26108521 0.57813822
|  8> O   -2.26896307 1.94856455 -2.04736325
|  9> O   1.37013663 -3.01621417 -1.01150129
| 10> O   -3.65189063 -1.48162389 0.45439794
| 11> N   0.36589214 -1.3632051 0.14489876
| 12> N   -1.91520405 -0.2903518 1.28502346
| 13> N   2.58961027 -1.14404892 -0.51033909
| 14> N   -2.72947075 0.13211056 -0.9250642
| 15> C   1.77448531 0.28909376 1.2591627
| 16> C   -0.90833683 1.46813615 -0.12578164
| 17> C   0.43988038 -0.32927379 1.15698965
| 18> C   -0.78307636 0.61248129 1.07728314
| 19> C   2.04435771 1.20903138 2.43651779
| 20> C   -0.0672169 2.68638221 -0.40956229
| 21> C   2.8560783 -0.09047906 0.40599409
| 22> C   -1.9652674 1.22218036 -1.04971666
| 23> C   1.41218512 -1.90632894 -0.46883207
| 24> C   -2.8096103 -0.57542445 0.31943044
| 25> H   0.33728269 -0.62041148 2.21456436
| 26> H   -0.58115467 1.28866397 1.96470367
| 27> H   3.09046107 1.47948118 2.50025392
| 28> H   1.35842365 2.1043704 2.45275732
| 29> H   1.78713912 0.63077771 3.34178112
| 30> H   -0.07072831 3.24579545 0.47403551
| 31> H   0.89830304 2.27965228 -0.68833474
| 32> H   -0.43834902 3.25538407 -1.29364152
| 33> H   -0.30425077 -2.07548468 0.40851422
| 34> H   -2.24962415 -0.49997888 2.22881313
| 35> H   3.48377192 -1.58191271 -0.64221568
| 36> H   -3.47933402 0.10455783 -1.6067699
| 37> *
| 38> 
| 39>                          ****END OF INPUT****
================================================================================

                     *******************************
                     * Energy+Gradient Calculation *
                     *******************************

---------------------------------
CARTESIAN COORDINATES (ANGSTROEM)
---------------------------------
  O      4.038666    0.261085    0.578138
  O     -2.268963    1.948565   -2.047363
  O      1.370137   -3.016214   -1.011501
  O     -3.651891   -1.481624    0.454398
  N      0.365892   -1.363205    0.144899
  N     -1.915204   -0.290352    1.285023
  N      2.589610   -1.144049   -0.510339
  N     -2.729471    0.132111   -0.925064
  C      1.774485    0.289094    1.259163
  C     -0.908337    1.468136   -0.125782
  C      0.439880   -0.329274    1.156990
  C     -0.783076    0.612481    1.077283
  C      2.044358    1.209031    2.436518
  C     -0.067217    2.686382   -0.409562
  C      2.856078   -0.090479    0.405994
  C     -1.965267    1.222180   -1.049717
  C      1.412185   -1.906329   -0.468832
  C     -2.809610   -0.575424    0.319430
  H      0.337283   -0.620411    2.214564
  H     -0.581155    1.288664    1.964704
  H      3.090461    1.479481    2.500254
  H      1.358424    2.104370    2.452757
  H      1.787139    0.630778    3.341781
  H     -0.070728    3.245795    0.474036
  H      0.898303    2.279652   -0.688335
  H     -0.438349    3.255384   -1.293642
  H     -0.304251   -2.075485    0.408514
  H     -2.249624   -0.499979    2.228813
  H      3.483772   -1.581913   -0.642216
  H     -3.479334    0.104558   -1.606770

----------------------------
CARTESIAN COORDINATES (A.U.)
----------------------------
  NO LB      ZA    FRAG     MASS         X           Y           Z
   0 O     8.0000    0    15.999    7.631973    0.493380    1.092523
   1 O     8.0000    0    15.999   -4.287719    3.682253   -3.868956
   2 O     8.0000    0    15.999    2.589183   -5.699819   -1.911460
   3 O     8.0000    0    15.999   -6.901073   -2.799863    0.858688
   4 N     7.0000    0    14.007    0.691436   -2.576084    0.273819
   5 N     7.0000    0    14.007   -3.619211   -0.548685    2.428342
   6 N     7.0000    0    14.007    4.893654   -2.161939   -0.964401
   7 N     7.0000    0    14.007   -5.157952    0.249653   -1.748118
   8 C     6.0000    0    12.011    3.353291    0.546308    2.379473
   9 C     6.0000    0    12.011   -1.716508    2.774375   -0.237693
  10 C     6.0000    0    12.011    0.831253   -0.622237    2.186394
  11 C     6.0000    0    12.011   -1.479800    1.157422    2.035770
  12 C     6.0000    0    12.011    3.863276    2.284738    4.604351
  13 C     6.0000    0    12.011   -0.127022    5.076527   -0.773961
  14 C     6.0000    0    12.011    5.397206   -0.170981    0.767218
  15 C     6.0000    0    12.011   -3.713817    2.309586   -1.983677
  16 C     6.0000    0    12.011    2.668643   -3.602440   -0.885964
  17 C     6.0000    0    12.011   -5.309394   -1.087395    0.603636
  18 H     1.0000    0     1.008    0.637372   -1.172408    4.184920
  19 H     1.0000    0     1.008   -1.098223    2.435222    3.712752
  20 H     1.0000    0     1.008    5.840125    2.795814    4.724795
  21 H     1.0000    0     1.008    2.567049    3.976684    4.635040
  22 H     1.0000    0     1.008    3.377204    1.191997    6.315051
  23 H     1.0000    0     1.008   -0.133657    6.133664    0.895797
  24 H     1.0000    0     1.008    1.697547    4.307918   -1.300764
  25 H     1.0000    0     1.008   -0.828360    6.151784   -2.444628
  26 H     1.0000    0     1.008   -0.574951   -3.922098    0.771980
  27 H     1.0000    0     1.008   -4.251174   -0.944823    4.211846
  28 H     1.0000    0     1.008    6.583375   -2.989382   -1.213612
  29 H     1.0000    0     1.008   -6.574988    0.197586   -3.036355

--------------------------------
INTERNAL COORDINATES (ANGSTROEM)
--------------------------------
 O      0   0   0     0.000000000000     0.00000000     0.00000000
 O      1   0   0     7.037544449459     0.00000000     0.00000000
 O      1   2   0     4.515384283090    60.85678876     0.00000000
 O      2   1   3     4.465141702332    83.35959435    46.27186161
 N      3   1   2     2.253487753869    63.27589096   320.60515870
 N      4   2   1     2.263879021512    64.13437181    33.10245366
 N      3   1   2     2.289821441220     9.86603532    38.65976480
 N      2   1   3     2.184291092954    78.33859724    40.98313339
 C      1   2   3     2.364549441167    41.09432423   278.90781251
 C      8   2   1     2.395901864107    63.09148910    29.04521503
 C      5   3   1     1.448729161395   149.23212297   333.16798941
 C      6   4   2     1.462865932141   150.03654176   337.57326733
 C      9   1   2     1.518315298257    93.45781424   237.88760059
 C     10   8   2     1.507361156679   144.29314853   355.69476140
 C      1   2   3     1.245690671722    33.40886401   328.04137630
 C      2   1   3     1.270890935524    49.90276250    62.26548348
 C      3   1   2     1.236164706509    34.27811874   329.40591006
 C      4   2   1     1.244527944812    33.92714660    28.44022416
 H     11   5   3     1.101704001882   118.50715725   278.93634152
 H     12   6   4     1.133803590879   113.25018818   149.55855368
 H     13   9   1     1.082375918242   111.64425345     0.26270460
 H     13   9   1     1.128007631950   112.58150320   128.41482124
 H     13   9   1     1.104554392754   106.07756585   242.95365231
 H     14  10   8     1.045801403352   105.74632423   129.48972835
 H     14  10   8     1.084145778655   104.01382448   250.89737222
 H     14  10   8     1.114943160926   112.08570392     5.55425188
 H      5   3   1     1.012880462177    84.98391919   210.01139498
 H      6   4   2     1.022995238089    88.84779076   148.46745688
 H      7   3  17     1.004311301298    95.10330147   159.56573089
 H      8   2   1     1.013793242253    80.38909322   205.22322368

---------------------------
INTERNAL COORDINATES (A.U.)
---------------------------
 O      0   0   0     0.000000000000     0.00000000     0.00000000
 O      1   0   0    13.299031664776     0.00000000     0.00000000
 O      1   2   0     8.532839684453    60.85678876     0.00000000
 O      2   1   3     8.437894966559    83.35959435    46.27186161
 N      3   1   2     4.258474700958    63.27589096   320.60515870
 N      4   2   1     4.278111350987    64.13437181    33.10245366
 N      3   1   2     4.327135419487     9.86603532    38.65976480
 N      2   1   3     4.127711962446    78.33859724    40.98313339
 C      1   2   3     4.468350873923    41.09432423   278.90781251
 C      8   2   1     4.527598366913    63.09148910    29.04521503
 C      5   3   1     2.737701357263   149.23212297   333.16798941
 C      6   4   2     2.764415982389   150.03654176   337.57326733
 C      9   1   2     2.869200098649    93.45781424   237.88760059
 C     10   8   2     2.848499771033   144.29314853   355.69476140
 C      1   2   3     2.354014217135    33.40886401   328.04137630
 C      2   1   3     2.401635814224    49.90276250    62.26548348
 C      3   1   2     2.336012751721    34.27811874   329.40591006
 C      4   2   1     2.351816981706    33.92714660    28.44022416
 H     11   5   3     2.081918844203   118.50715725   278.93634152
 H     12   6   4     2.142578276418   113.25018818   149.55855368
 H     13   9   1     2.045394059429   111.64425345     0.26270460
 H     13   9   1     2.131625501358   112.58150320   128.41482124
 H     13   9   1     2.087305302325   106.07756585   242.95365231
 H     14  10   8     1.976278242805   105.74632423   129.48972835
 H     14  10   8     2.048738610904   104.01382448   250.89737222
 H     14  10   8     2.106937229039   112.08570392     5.55425188
 H      5   3   1     1.914066679914    84.98391919   210.01139498
 H      6   4   2     1.933180836293    88.84779076   148.46745688
 H      7   3  17     1.897873312654    95.10330147   159.56573089
 H      8   2   1     1.915791584278    80.38909322   205.22322368

---------------------
BASIS SET INFORMATION
---------------------
There are 4 groups of distinct atoms

 Group   1 Type O   : 12s7p3d1f contracted to 6s4p3d1f pattern {621111/4111/111/1}
 Group   2 Type N   : 12s6p3d1f contracted to 6s3p3d1f pattern {621111/411/111/1}
 Group   3 Type C   : 12s6p3d1f contracted to 6s3p3d1f pattern {621111/411/111/1}
 Group   4 Type H   : 5s3p1d contracted to 3s3p1d pattern {311/111/1}

Atom   0O    basis set group =>   1
Atom   1O    basis set group =>   1
Atom   2O    basis set group =>   1
Atom   3O    basis set group =>   1
Atom   4N    basis set group =>   2
Atom   5N    basis set group =>   2
Atom   6N    basis set group =>   2
Atom   7N    basis set group =>   2
Atom   8C    basis set group =>   3
Atom   9C    basis set group =>   3
Atom  10C    basis set group =>   3
Atom  11C    basis set group =>   3
Atom  12C    basis set group =>   3
Atom  13C    basis set group =>   3
Atom  14C    basis set group =>   3
Atom  15C    basis set group =>   3
Atom  16C    basis set group =>   3
Atom  17C    basis set group =>   3
Atom  18H    basis set group =>   4
Atom  19H    basis set group =>   4
Atom  20H    basis set group =>   4
Atom  21H    basis set group =>   4
Atom  22H    basis set group =>   4
Atom  23H    basis set group =>   4
Atom  24H    basis set group =>   4
Atom  25H    basis set group =>   4
Atom  26H    basis set group =>   4
Atom  27H    basis set group =>   4
Atom  28H    basis set group =>   4
Atom  29H    basis set group =>   4
---------------------------------
AUXILIARY/J BASIS SET INFORMATION
---------------------------------
There are 4 groups of distinct atoms

 Group   1 Type O   : 12s5p4d2f1g contracted to 6s4p3d1f1g pattern {711111/2111/211/2/1}
 Group   2 Type N   : 12s5p4d2f1g contracted to 6s4p3d1f1g pattern {711111/2111/211/2/1}
 Group   3 Type C   : 12s5p4d2f1g contracted to 6s4p3d1f1g pattern {711111/2111/211/2/1}
 Group   4 Type H   : 5s2p1d contracted to 3s1p1d pattern {311/2/1}

Atom   0O    basis set group =>   1
Atom   1O    basis set group =>   1
Atom   2O    basis set group =>   1
Atom   3O    basis set group =>   1
Atom   4N    basis set group =>   2
Atom   5N    basis set group =>   2
Atom   6N    basis set group =>   2
Atom   7N    basis set group =>   2
Atom   8C    basis set group =>   3
Atom   9C    basis set group =>   3
Atom  10C    basis set group =>   3
Atom  11C    basis set group =>   3
Atom  12C    basis set group =>   3
Atom  13C    basis set group =>   3
Atom  14C    basis set group =>   3
Atom  15C    basis set group =>   3
Atom  16C    basis set group =>   3
Atom  17C    basis set group =>   3
Atom  18H    basis set group =>   4
Atom  19H    basis set group =>   4
Atom  20H    basis set group =>   4
Atom  21H    basis set group =>   4
Atom  22H    basis set group =>   4
Atom  23H    basis set group =>   4
Atom  24H    basis set group =>   4
Atom  25H    basis set group =>   4
Atom  26H    basis set group =>   4
Atom  27H    basis set group =>   4
Atom  28H    basis set group =>   4
Atom  29H    basis set group =>   4
[1739875961.287844] [ohm:4181816:0]        ib_iface.c:1059 UCX  ERROR ibv_create_cq(cqe=256) failed: Connection timed out
[1739875961.300491] [ohm:4181805:0]        ib_iface.c:1059 UCX  ERROR ibv_create_cq(cqe=256) failed: Connection timed out
[1739875961.305114] [ohm:4181802:0]        ib_iface.c:1059 UCX  ERROR ibv_create_cq(cqe=256) failed: Connection timed out
[1739875961.311910] [ohm:4181810:0]        ib_iface.c:1059 UCX  ERROR ibv_create_cq(cqe=256) failed: Connection timed out
[1739875961.314830] [ohm:4181803:0]        ib_iface.c:1059 UCX  ERROR ibv_create_cq(cqe=256) failed: Connection timed out
[1739875961.318427] [ohm:4181807:0]        ib_iface.c:1059 UCX  ERROR ibv_create_cq(cqe=256) failed: Connection timed out
[1739875961.334979] [ohm:4181862:0]        ib_iface.c:1059 UCX  ERROR ibv_create_cq(cqe=256) failed: Connection timed out
[1739875961.335677] [ohm:4181873:0]        ib_iface.c:1059 UCX  ERROR ibv_create_cq(cqe=256) failed: Connection timed out
[1739875961.340587] [ohm:4181821:0]        ib_iface.c:1059 UCX  ERROR ibv_create_cq(cqe=256) failed: Connection timed out
[1739875961.342008] [ohm:4181809:0]        ib_iface.c:1059 UCX  ERROR ibv_create_cq(cqe=256) failed: Connection timed out
[1739875961.345695] [ohm:4181848:0]        ib_iface.c:1059 UCX  ERROR ibv_create_cq(cqe=256) failed: Connection timed out
[1739875961.347356] [ohm:4181849:0]        ib_iface.c:1059 UCX  ERROR ibv_create_cq(cqe=256) failed: Connection timed out
[1739875961.367126] [ohm:4181815:0]        ib_iface.c:1059 UCX  ERROR ibv_create_cq(cqe=256) failed: Connection timed out
[1739875961.367470] [ohm:4181804:0]        ib_iface.c:1059 UCX  ERROR ibv_create_cq(cqe=256) failed: Connection timed out
[1739875961.368068] [ohm:4181814:0]        ib_iface.c:1059 UCX  ERROR ibv_create_cq(cqe=256) failed: Connection timed out
[1739875961.375270] [ohm:4181819:0]        ib_iface.c:1059 UCX  ERROR ibv_create_cq(cqe=256) failed: Connection timed out
[1739875961.458490] [ohm:4181882:0]        ib_iface.c:1059 UCX  ERROR ibv_create_cq(cqe=256) failed: Connection timed out
[1739875961.462412] [ohm:4181859:0]        ib_iface.c:1059 UCX  ERROR ibv_create_cq(cqe=256) failed: Connection timed out
[1739875961.470541] [ohm:4181912:0]        ib_iface.c:1059 UCX  ERROR ibv_create_cq(cqe=256) failed: Connection timed out
[1739875961.472042] [ohm:4181853:0]        ib_iface.c:1059 UCX  ERROR ibv_create_cq(cqe=256) failed: Connection timed out
[1739875961.479930] [ohm:4181833:0]        ib_iface.c:1059 UCX  ERROR ibv_create_cq(cqe=256) failed: Connection timed out
[1739875961.486953] [ohm:4181897:0]        ib_iface.c:1059 UCX  ERROR ibv_create_cq(cqe=256) failed: Connection timed out
[1739875961.487502] [ohm:4181812:0]        ib_iface.c:1059 UCX  ERROR ibv_create_cq(cqe=256) failed: Connection timed out
[1739875961.495058] [ohm:4181806:0]        ib_iface.c:1059 UCX  ERROR ibv_create_cq(cqe=256) failed: Connection timed out
[1739875961.506088] [ohm:4181811:0]        ib_iface.c:1059 UCX  ERROR ibv_create_cq(cqe=256) failed: Connection timed out
[1739875961.508288] [ohm:4181826:0]        ib_iface.c:1059 UCX  ERROR ibv_create_cq(cqe=256) failed: Connection timed out
[1739875961.517908] [ohm:4181842:0]        ib_iface.c:1059 UCX  ERROR ibv_create_cq(cqe=256) failed: Connection timed out
[1739875961.519873] [ohm:4181813:0]        ib_iface.c:1059 UCX  ERROR ibv_create_cq(cqe=256) failed: Connection timed out
[1739875961.520475] [ohm:4181808:0]        ib_iface.c:1059 UCX  ERROR ibv_create_cq(cqe=256) failed: Connection timed out
[1739875961.521153] [ohm:4181854:0]        ib_iface.c:1059 UCX  ERROR ibv_create_cq(cqe=256) failed: Connection timed out
[1739875961.527690] [ohm:4181878:0]        ib_iface.c:1059 UCX  ERROR ibv_create_cq(cqe=256) failed: Connection timed out
[1739875961.527825] [ohm:4181820:0]        ib_iface.c:1059 UCX  ERROR ibv_create_cq(cqe=256) failed: Connection timed out
[1739875961.533748] [ohm:4181919:0]        ib_iface.c:1059 UCX  ERROR ibv_create_cq(cqe=256) failed: Connection timed out
[1739875961.535014] [ohm:4181898:0]        ib_iface.c:1059 UCX  ERROR ibv_create_cq(cqe=256) failed: Connection timed out
[1739875961.542652] [ohm:4181822:0]        ib_iface.c:1059 UCX  ERROR ibv_create_cq(cqe=256) failed: Connection timed out
[1739875961.546186] [ohm:4181906:0]        ib_iface.c:1059 UCX  ERROR ibv_create_cq(cqe=256) failed: Connection timed out
[1739875961.547388] [ohm:4181885:0]        ib_iface.c:1059 UCX  ERROR ibv_create_cq(cqe=256) failed: Connection timed out
[1739875961.550824] [ohm:4181929:0]        ib_iface.c:1059 UCX  ERROR ibv_create_cq(cqe=256) failed: Connection timed out
[1739875961.555212] [ohm:4181865:0]        ib_iface.c:1059 UCX  ERROR ibv_create_cq(cqe=256) failed: Connection timed out
[1739875961.558794] [ohm:4181941:0]        ib_iface.c:1059 UCX  ERROR ibv_create_cq(cqe=256) failed: Connection timed out
[1739875961.558969] [ohm:4181829:0]        ib_iface.c:1059 UCX  ERROR ibv_create_cq(cqe=256) failed: Connection timed out
[1739875961.562094] [ohm:4181836:0]        ib_iface.c:1059 UCX  ERROR ibv_create_cq(cqe=256) failed: Connection timed out
[1739875961.565777] [ohm:4181890:0]        ib_iface.c:1059 UCX  ERROR ibv_create_cq(cqe=256) failed: Connection timed out
[1739875961.567563] [ohm:4181911:0]        ib_iface.c:1059 UCX  ERROR ibv_create_cq(cqe=256) failed: Connection timed out
[1739875961.569193] [ohm:4181940:0]        ib_iface.c:1059 UCX  ERROR ibv_create_cq(cqe=256) failed: Connection timed out
[1739875961.579457] [ohm:4181818:0]        ib_iface.c:1059 UCX  ERROR ibv_create_cq(cqe=256) failed: Connection timed out
[1739875961.581979] [ohm:4181896:0]        ib_iface.c:1059 UCX  ERROR ibv_create_cq(cqe=256) failed: Connection timed out
[1739875961.584870] [ohm:4181817:0]        ib_iface.c:1059 UCX  ERROR ibv_create_cq(cqe=256) failed: Connection timed out
[1739875961.588641] [ohm:4181844:0]        ib_iface.c:1059 UCX  ERROR ibv_create_cq(cqe=256) failed: Connection timed out
[1739875961.592236] [ohm:4181827:0]        ib_iface.c:1059 UCX  ERROR ibv_create_cq(cqe=256) failed: Connection timed out
[1739875961.593486] [ohm:4181924:0]        ib_iface.c:1059 UCX  ERROR ibv_create_cq(cqe=256) failed: Connection timed out
[1739875961.595048] [ohm:4181930:0]        ib_iface.c:1059 UCX  ERROR ibv_create_cq(cqe=256) failed: Connection timed out
[1739875961.595972] [ohm:4181902:0]        ib_iface.c:1059 UCX  ERROR ibv_create_cq(cqe=256) failed: Connection timed out
[1739875961.598419] [ohm:4181925:0]        ib_iface.c:1059 UCX  ERROR ibv_create_cq(cqe=256) failed: Connection timed out
[1739875961.600724] [ohm:4181825:0]        ib_iface.c:1059 UCX  ERROR ibv_create_cq(cqe=256) failed: Connection timed out
[1739875961.600770] [ohm:4181831:0]        ib_iface.c:1059 UCX  ERROR ibv_create_cq(cqe=256) failed: Connection timed out
[1739875961.604865] [ohm:4181824:0]        ib_iface.c:1059 UCX  ERROR ibv_create_cq(cqe=256) failed: Connection timed out
[1739875961.604984] [ohm:4181950:0]        ib_iface.c:1059 UCX  ERROR ibv_create_cq(cqe=256) failed: Connection timed out
[1739875961.606457] [ohm:4181918:0]        ib_iface.c:1059 UCX  ERROR ibv_create_cq(cqe=256) failed: Connection timed out
[1739875961.606880] [ohm:4181933:0]        ib_iface.c:1059 UCX  ERROR ibv_create_cq(cqe=256) failed: Connection timed out
[1739875961.607221] [ohm:4181891:0]        ib_iface.c:1059 UCX  ERROR ibv_create_cq(cqe=256) failed: Connection timed out
[1739875961.610955] [ohm:4181934:0]        ib_iface.c:1059 UCX  ERROR ibv_create_cq(cqe=256) failed: Connection timed out
[1739875961.611637] [ohm:4181823:0]        ib_iface.c:1059 UCX  ERROR ibv_create_cq(cqe=256) failed: Connection timed out
[1739875961.612186] [ohm:4181867:0]        ib_iface.c:1059 UCX  ERROR ibv_create_cq(cqe=256) failed: Connection timed out


           ************************************************************
           *        Program running with 64 parallel MPI-processes    *
           *              working on a common directory               *
           ************************************************************
------------------------------------------------------------------------------
                             ORCA STARTUP CALCULATIONS
                           -- RI-GTO INTEGRALS CHOSEN --
------------------------------------------------------------------------------
------------------------------------------------------------------------------
                   ___                                                        
                  /   \      - P O W E R E D   B Y -                         
                 /     \                                                     
                 |  |  |   _    _      __       _____    __    __             
                 |  |  |  | |  | |    /  \     |  _  \  |  |  /  |          
                  \  \/   | |  | |   /    \    | | | |  |  | /  /          
                 / \  \   | |__| |  /  /\  \   | |_| |  |  |/  /          
                |  |  |   |  __  | /  /__\  \  |    /   |      \           
                |  |  |   | |  | | |   __   |  |    \   |  |\   \          
                \     /   | |  | | |  |  |  |  | |\  \  |  | \   \       
                 \___/    |_|  |_| |__|  |__|  |_| \__\ |__|  \__/        
                                                                              
                      - O R C A' S   B I G   F R I E N D -                    
                                      &                                       
                       - I N T E G R A L  F E E D E R -                       
                                                                              
 v1 FN, 2020, v2 2021, v3 2022-2024                                           
------------------------------------------------------------------------------


----------------------
SHARK INTEGRAL PACKAGE
----------------------

Number of atoms                             ...     30
Number of basis functions                   ...    882
Number of shells                            ...    322
Maximum angular momentum                    ...      3
Integral batch strategy                     ... SHARK/LIBINT Hybrid
RI-J (if used) integral strategy            ... SPLIT-RIJ (Revised 2003 algorithm where possible)
Printlevel                                  ...      1
Contraction scheme used                     ... SEGMENTED contraction
Prescreening option                         ... SCHWARTZ
   Thresh                                   ... 2.500e-11
   Tcut                                     ... 2.500e-12
   Tpresel                                  ... 2.500e-12 
Coulomb Range Separation                    ... NOT USED
Exchange Range Separation                   ... Long Range
   Mu parameter                             ... 3.000e-01
   Scaling (regular/separated)              ... 1.500e-01 8.500e-01
Multipole approximations                    ... NOT USED
Finite Nucleus Model                        ... NOT USED
CABS basis                                  ... NOT available
Auxiliary Coulomb fitting basis             ... AVAILABLE
   # of basis functions in Aux-J            ...   1014
   # of shells in Aux-J                     ...    330
   Maximum angular momentum in Aux-J        ...      4
Auxiliary J/K fitting basis                 ... NOT available
Auxiliary Correlation fitting basis         ... NOT available
Auxiliary 'external' fitting basis          ... NOT available

Checking pre-screening integrals            ... done (  0.0 sec) Dimension = 322
Check shell pair data                       ... done (  0.0 sec)
Shell pair information
Shell pair cut-off parameter TPreSel        ...   2.5e-12
Total number of shell pairs                 ...     52003
Shell pairs after pre-screening             ...     43951
Total number of primitive shell pairs       ...    129718
Primitive shell pairs kept                  ...     81836
          la=0 lb=0:   8530 shell pairs
          la=1 lb=0:  11680 shell pairs
          la=1 lb=1:   4047 shell pairs
          la=2 lb=0:   7916 shell pairs
          la=2 lb=1:   5463 shell pairs
          la=2 lb=2:   1867 shell pairs
          la=3 lb=0:   1969 shell pairs
          la=3 lb=1:   1405 shell pairs
          la=3 lb=2:    949 shell pairs
          la=3 lb=3:    125 shell pairs

Calculating one electron integrals          ... done (  0.2 sec)
Calculating RI/J V-Matrix + Cholesky decomp.... done (  0.1 sec)
Calculating Nuclear repulsion               ... done (  0.0 sec) ENN=   1387.675868773320 Eh

Diagonalization of the overlap matrix:
Smallest eigenvalue                        ... 4.693e-07
Time for diagonalization                   ...    0.124 sec
Threshold for overlap eigenvalues          ... 1.000e-07
Number of eigenvalues below threshold      ... 0

IMPORTANT:
Smallest eigenvalue of S below the DiffSThresh (1.000e-06) while
Thresh>1e-12 and/or TCut>1e-13! In order to avoid SCF convergence issues,
Thresh will be set to at least 1e-12 and TCut to at least 1e-13.
This can be turned off by adding %SCF DiffSThresh -1 END to the input.

Time for construction of square roots      ...    0.139 sec
Total time needed                          ...    0.279 sec

-------------------
DFT GRID GENERATION
-------------------

General Integration Accuracy     IntAcc      ... 4.388
Radial Grid Type                 RadialGrid  ... OptM3 with GC (2021)
Angular Grid (max. ang.)         AngularGrid ... 4 (Lebedev-302)
Angular grid pruning method      GridPruning ... 4 (adaptive)
Weight generation scheme         WeightScheme... mBecke (2022)
Basis function cutoff            BFCut       ... 1.0000e-11
Integration weight cutoff        WCut        ... 1.0000e-14
Partially contracted basis set               ... off
Rotationally invariant grid construction     ... off
Angular grids for H and He will be reduced by one unit
Diffuse basis detected: some atoms will have their outermost
                        angular grid increased by 1.

Total number of grid points                  ...   152362
Total number of batches                      ...     2395
Average number of points per batch           ...       63
Average number of grid points per atom       ...     5079

--------------------
COSX GRID GENERATION
--------------------

GRIDX 1
-------
General Integration Accuracy     IntAcc      ... 3.816
Radial Grid Type                 RadialGrid  ... OptM3 with GC (2021)
Angular Grid (max. ang.)         AngularGrid ... 1 (Lebedev-50)
Angular grid pruning method      GridPruning ... 4 (adaptive)
Weight generation scheme         WeightScheme... mBecke (2022)
Basis function cutoff            BFCut       ... 1.0000e-11
Integration weight cutoff        WCut        ... 1.0000e-14
Partially contracted basis set               ... on
Rotationally invariant grid construction     ... off
Angular grids for H and He will be reduced by one unit
Diffuse basis detected: some atoms will have their outermost
                        angular grid increased by 1.

Total number of grid points                  ...    19086
Total number of batches                      ...      167
Average number of points per batch           ...      114
Average number of grid points per atom       ...      636
UseSFitting                                  ... on

GRIDX 2
-------
General Integration Accuracy     IntAcc      ... 4.020
Radial Grid Type                 RadialGrid  ... OptM3 with GC (2021)
Angular Grid (max. ang.)         AngularGrid ... 2 (Lebedev-110)
Angular grid pruning method      GridPruning ... 4 (adaptive)
Weight generation scheme         WeightScheme... mBecke (2022)
Basis function cutoff            BFCut       ... 1.0000e-11
Integration weight cutoff        WCut        ... 1.0000e-14
Partially contracted basis set               ... on
Rotationally invariant grid construction     ... off
Angular grids for H and He will be reduced by one unit
Diffuse basis detected: some atoms will have their outermost
                        angular grid increased by 1.

Total number of grid points                  ...    46176
Total number of batches                      ...      376
Average number of points per batch           ...      122
Average number of grid points per atom       ...     1539
UseSFitting                                  ... on

GRIDX 3
-------
General Integration Accuracy     IntAcc      ... 4.338
Radial Grid Type                 RadialGrid  ... OptM3 with GC (2021)
Angular Grid (max. ang.)         AngularGrid ... 3 (Lebedev-194)
Angular grid pruning method      GridPruning ... 4 (adaptive)
Weight generation scheme         WeightScheme... mBecke (2022)
Basis function cutoff            BFCut       ... 1.0000e-11
Integration weight cutoff        WCut        ... 1.0000e-14
Partially contracted basis set               ... on
Rotationally invariant grid construction     ... off
Angular grids for H and He will be reduced by one unit
Diffuse basis detected: some atoms will have their outermost
                        angular grid increased by 1.

Total number of grid points                  ...   101574
Total number of batches                      ...      808
Average number of points per batch           ...      125
Average number of grid points per atom       ...     3386
UseSFitting                                  ... on
Initializing property integral containers    ... done (  0.0 sec)

SHARK setup successfully completed in   4.1 seconds

Maximum memory used throughout the entire STARTUP-calculation: 78.7 MB
[1739875967.567671] [ohm:4182169:0]        ib_iface.c:1059 UCX  ERROR ibv_create_cq(cqe=256) failed: Connection timed out
[1739875967.579867] [ohm:4182172:0]        ib_iface.c:1059 UCX  ERROR ibv_create_cq(cqe=256) failed: Connection timed out
[1739875967.590319] [ohm:4182165:0]        ib_iface.c:1059 UCX  ERROR ibv_create_cq(cqe=256) failed: Connection timed out
[1739875967.601579] [ohm:4182171:0]        ib_iface.c:1059 UCX  ERROR ibv_create_cq(cqe=256) failed: Connection timed out
[1739875967.603999] [ohm:4182164:0]        ib_iface.c:1059 UCX  ERROR ibv_create_cq(cqe=256) failed: Connection timed out
[1739875967.604233] [ohm:4182163:0]        ib_iface.c:1059 UCX  ERROR ibv_create_cq(cqe=256) failed: Connection timed out
[1739875967.629953] [ohm:4182168:0]        ib_iface.c:1059 UCX  ERROR ibv_create_cq(cqe=256) failed: Connection timed out
[1739875967.636540] [ohm:4182178:0]        ib_iface.c:1059 UCX  ERROR ibv_create_cq(cqe=256) failed: Connection timed out
[1739875967.636522] [ohm:4182191:0]        ib_iface.c:1059 UCX  ERROR ibv_create_cq(cqe=256) failed: Connection timed out
[1739875967.639939] [ohm:4182173:0]        ib_iface.c:1059 UCX  ERROR ibv_create_cq(cqe=256) failed: Connection timed out
[1739875967.645319] [ohm:4182176:0]        ib_iface.c:1059 UCX  ERROR ibv_create_cq(cqe=256) failed: Connection timed out
[1739875967.659662] [ohm:4182180:0]        ib_iface.c:1059 UCX  ERROR ibv_create_cq(cqe=256) failed: Connection timed out
[1739875967.661855] [ohm:4182177:0]        ib_iface.c:1059 UCX  ERROR ibv_create_cq(cqe=256) failed: Connection timed out
[1739875967.669082] [ohm:4182183:0]        ib_iface.c:1059 UCX  ERROR ibv_create_cq(cqe=256) failed: Connection timed out
[1739875967.670398] [ohm:4182215:0]        ib_iface.c:1059 UCX  ERROR ibv_create_cq(cqe=256) failed: Connection timed out
[1739875967.671059] [ohm:4182182:0]        ib_iface.c:1059 UCX  ERROR ibv_create_cq(cqe=256) failed: Connection timed out
[1739875967.682713] [ohm:4182188:0]        ib_iface.c:1059 UCX  ERROR ibv_create_cq(cqe=256) failed: Connection timed out
[1739875967.694941] [ohm:4182204:0]        ib_iface.c:1059 UCX  ERROR ibv_create_cq(cqe=256) failed: Connection timed out
[1739875967.706553] [ohm:4182217:0]        ib_iface.c:1059 UCX  ERROR ibv_create_cq(cqe=256) failed: Connection timed out
[1739875967.708795] [ohm:4182201:0]        ib_iface.c:1059 UCX  ERROR ibv_create_cq(cqe=256) failed: Connection timed out
[1739875967.714428] [ohm:4182221:0]        ib_iface.c:1059 UCX  ERROR ibv_create_cq(cqe=256) failed: Connection timed out
[1739875967.746768] [ohm:4182223:0]        ib_iface.c:1059 UCX  ERROR ibv_create_cq(cqe=256) failed: Connection timed out
[1739875967.756841] [ohm:4182238:0]        ib_iface.c:1059 UCX  ERROR ibv_create_cq(cqe=256) failed: Connection timed out
[1739875967.772767] [ohm:4182287:0]        ib_iface.c:1059 UCX  ERROR ibv_create_cq(cqe=256) failed: Connection timed out
[1739875967.780723] [ohm:4182232:0]        ib_iface.c:1059 UCX  ERROR ibv_create_cq(cqe=256) failed: Connection timed out
[1739875967.790165] [ohm:4182233:0]        ib_iface.c:1059 UCX  ERROR ibv_create_cq(cqe=256) failed: Connection timed out
[1739875967.790314] [ohm:4182267:0]        ib_iface.c:1059 UCX  ERROR ibv_create_cq(cqe=256) failed: Connection timed out
[1739875967.796682] [ohm:4182235:0]        ib_iface.c:1059 UCX  ERROR ibv_create_cq(cqe=256) failed: Connection timed out
[1739875967.803039] [ohm:4182305:0]        ib_iface.c:1059 UCX  ERROR ibv_create_cq(cqe=256) failed: Connection timed out
[1739875967.803615] [ohm:4182212:0]        ib_iface.c:1059 UCX  ERROR ibv_create_cq(cqe=256) failed: Connection timed out
[1739875967.809182] [ohm:4182273:0]        ib_iface.c:1059 UCX  ERROR ibv_create_cq(cqe=256) failed: Connection timed out
[1739875967.809466] [ohm:4182262:0]        ib_iface.c:1059 UCX  ERROR ibv_create_cq(cqe=256) failed: Connection timed out
[1739875967.811133] [ohm:4182239:0]        ib_iface.c:1059 UCX  ERROR ibv_create_cq(cqe=256) failed: Connection timed out
[1739875967.815054] [ohm:4182197:0]        ib_iface.c:1059 UCX  ERROR ibv_create_cq(cqe=256) failed: Connection timed out
[1739875967.816585] [ohm:4182251:0]        ib_iface.c:1059 UCX  ERROR ibv_create_cq(cqe=256) failed: Connection timed out
[1739875967.822073] [ohm:4182265:0]        ib_iface.c:1059 UCX  ERROR ibv_create_cq(cqe=256) failed: Connection timed out
[1739875967.828290] [ohm:4182286:0]        ib_iface.c:1059 UCX  ERROR ibv_create_cq(cqe=256) failed: Connection timed out
[1739875967.828633] [ohm:4182228:0]        ib_iface.c:1059 UCX  ERROR ibv_create_cq(cqe=256) failed: Connection timed out
[1739875967.834878] [ohm:4182259:0]        ib_iface.c:1059 UCX  ERROR ibv_create_cq(cqe=256) failed: Connection timed out
[1739875967.840462] [ohm:4182283:0]        ib_iface.c:1059 UCX  ERROR ibv_create_cq(cqe=256) failed: Connection timed out
[1739875967.841821] [ohm:4182316:0]        ib_iface.c:1059 UCX  ERROR ibv_create_cq(cqe=256) failed: Connection timed out
[1739875967.846618] [ohm:4182256:0]        ib_iface.c:1059 UCX  ERROR ibv_create_cq(cqe=256) failed: Connection timed out
[1739875967.851586] [ohm:4182210:0]        ib_iface.c:1059 UCX  ERROR ibv_create_cq(cqe=256) failed: Connection timed out
[1739875967.856965] [ohm:4182311:0]        ib_iface.c:1059 UCX  ERROR ibv_create_cq(cqe=256) failed: Connection timed out
[1739875967.857350] [ohm:4182277:0]        ib_iface.c:1059 UCX  ERROR ibv_create_cq(cqe=256) failed: Connection timed out
[1739875967.862258] [ohm:4182270:0]        ib_iface.c:1059 UCX  ERROR ibv_create_cq(cqe=256) failed: Connection timed out
[1739875967.865080] [ohm:4182291:0]        ib_iface.c:1059 UCX  ERROR ibv_create_cq(cqe=256) failed: Connection timed out
[1739875967.869600] [ohm:4182298:0]        ib_iface.c:1059 UCX  ERROR ibv_create_cq(cqe=256) failed: Connection timed out
[1739875967.871244] [ohm:4182244:0]        ib_iface.c:1059 UCX  ERROR ibv_create_cq(cqe=256) failed: Connection timed out
[1739875967.873777] [ohm:4182181:0]        ib_iface.c:1059 UCX  ERROR ibv_create_cq(cqe=256) failed: Connection timed out
[1739875967.875106] [ohm:4182243:0]        ib_iface.c:1059 UCX  ERROR ibv_create_cq(cqe=256) failed: Connection timed out
[1739875967.875847] [ohm:4182174:0]        ib_iface.c:1059 UCX  ERROR ibv_create_cq(cqe=256) failed: Connection timed out
[1739875967.876101] [ohm:4182170:0]        ib_iface.c:1059 UCX  ERROR ibv_create_cq(cqe=256) failed: Connection timed out
[1739875967.876374] [ohm:4182278:0]        ib_iface.c:1059 UCX  ERROR ibv_create_cq(cqe=256) failed: Connection timed out
[1739875967.877002] [ohm:4182240:0]        ib_iface.c:1059 UCX  ERROR ibv_create_cq(cqe=256) failed: Connection timed out
[1739875967.882038] [ohm:4182167:0]        ib_iface.c:1059 UCX  ERROR ibv_create_cq(cqe=256) failed: Connection timed out
[1739875967.882079] [ohm:4182179:0]        ib_iface.c:1059 UCX  ERROR ibv_create_cq(cqe=256) failed: Connection timed out
[1739875967.884926] [ohm:4182208:0]        ib_iface.c:1059 UCX  ERROR ibv_create_cq(cqe=256) failed: Connection timed out
[1739875967.886373] [ohm:4182302:0]        ib_iface.c:1059 UCX  ERROR ibv_create_cq(cqe=256) failed: Connection timed out
[1739875967.887897] [ohm:4182175:0]        ib_iface.c:1059 UCX  ERROR ibv_create_cq(cqe=256) failed: Connection timed out
[1739875967.888846] [ohm:4182248:0]        ib_iface.c:1059 UCX  ERROR ibv_create_cq(cqe=256) failed: Connection timed out
[1739875967.889809] [ohm:4182166:0]        ib_iface.c:1059 UCX  ERROR ibv_create_cq(cqe=256) failed: Connection timed out
[1739875967.891127] [ohm:4182237:0]        ib_iface.c:1059 UCX  ERROR ibv_create_cq(cqe=256) failed: Connection timed out
[1739875967.891403] [ohm:4182236:0]        ib_iface.c:1059 UCX  ERROR ibv_create_cq(cqe=256) failed: Connection timed out


           ************************************************************
           *        Program running with 64 parallel MPI-processes    *
           *              working on a common directory               *
           ************************************************************
-------------------------------------------------------------------------------
                                 ORCA GUESS
                   Start orbitals & Density for SCF / CASSCF
-------------------------------------------------------------------------------

------------
SCF SETTINGS
------------
Hamiltonian:
 Density Functional     Method          .... DFT(GTOs)
  Functional kind                       .... Exchange-Correlation
  Functional name                       .... wB97M-V exchange-correlation functional
  Functional family                     .... Hybrid MGGA
  Functional refs                              
    [ 0] N. Mardirossian and M. Head-Gordon.,  J. Chem. Phys. 144, 214110 (2016), doi: 10.1063/1.4952647
  Fraction of HF Exchange (short range) .... 0.1500
  Fraction of HF Exchange (long range)  .... 1.0000
  Range separation parameter mu         .... 0.3000
  Functional external parameters        .... 17
    Parameter  0 _cx00      =  8.500000e-01 : u^00 coefficient for exchange
    Parameter  1 _cx01      =  1.007000e+00 : u^01 coefficient for exchange
    Parameter  2 _cx10      =  2.590000e-01 : u^10 coefficient for exchange
    Parameter  3 _css00     =  4.430000e-01 : u^00 coefficient for same-spin correlation
    Parameter  4 _css04     = -1.437000e+00 : u^04 coefficient for same-spin correlation
    Parameter  5 _css10     = -4.535000e+00 : u^10 coefficient for same-spin correlation
    Parameter  6 _css20     = -3.390000e+00 : u^20 coefficient for same-spin correlation
    Parameter  7 _css43     =  4.278000e+00 : u^43 coefficient for same-spin correlation
    Parameter  8 _cos00     =  1.000000e+00 : u^00 coefficient for opposite-spin correlation
    Parameter  9 _cos10     =  1.358000e+00 : u^10 coefficient for opposite-spin correlation
    Parameter 10 _cos20     =  2.924000e+00 : u^20 coefficient for opposite-spin correlation
    Parameter 11 _cos21     = -8.812000e+00 : u^21 coefficient for opposite-spin correlation
    Parameter 12 _cos60     = -1.390000e+00 : u^60 coefficient for opposite-spin correlation
    Parameter 13 _cos61     =  9.142000e+00 : u^61 coefficient for opposite-spin correlation
    Parameter 14 _alpha     =  1.000000e+00 : fraction of HF exchange
    Parameter 15 _beta      = -8.500000e-01 : fraction of short-range exchange
    Parameter 16 _omega     =  3.000000e-01 : range-separation constant
 Long-range corrected/Screened/Range-Separated Hybrid DFT is turned on
   Amount of maximum screened exact exchange              ....  0.850000
   Range separation parameter mu (erf(mu*r12)/r12)        ....  0.300000
 RI-approximation to the Coulomb term is turned on
   Number of AuxJ basis functions       .... 1014
   RIJ-COSX (HFX calculated with COS-X)).... on


General Settings:
 Integral files         IntName         .... orca
 Hartree-Fock type      HFTyp           .... UHF
 Total Charge           Charge          ....    0
 Multiplicity           Mult            ....    3
 Number of Electrons    NEL             ....  132
 Basis Dimension        Dim             ....  882
 Nuclear Repulsion      ENuc            ....   1387.6758687733 Eh

Convergence Acceleration:
 AO-DIIS                CNVDIIS         .... on
   Start iteration      DIISMaxIt       ....    12
   Startup error        DIISStart       ....  0.200000
   # of expansion vecs  DIISMaxEq       ....     5
   Bias factor          DIISBfac        ....   1.050
   Max. coefficient     DIISMaxC        ....  10.000
 MO-DIIS                CNVKDIIS        .... off
 Trust-Rad. Augm. Hess. CNVTRAH         .... auto
   Auto Start mean grad. ratio tolernc. ....  1.125000
   Auto Start start iteration           ....    50
   Auto Start num. interpolation iter.  ....    10
   Max. Number of Micro iterations      ....    24
   Max. Number of Macro iterations      .... Maxiter - #DIIS iter
   Number of Davidson start vectors     ....     2
   Converg. threshold    (grad. norm)   ....   1.000e-05
   Grad. Scal. Fac. for Micro threshold ....   0.100
   Minimum threshold for Micro iter.    ....   1.000e-02
   NR start threshold (gradient norm)   ....   1.000e-04
   Initial trust radius                 ....   0.400
   Minimum AH scaling param. (alpha)    ....   1.000
   Maximum AH scaling param. (alpha)    .... 1000.000
   Quad. conv. algorithm                .... NR
   White noise on init. David. guess    .... on
   Maximum white noise                  ....   0.010
   Pseudo random numbers                .... off
   Inactive MOs                         .... canonical
   Orbital update algorithm             .... Taylor
   Preconditioner                       .... Diag
   Full preconditioner red. dimension   ....   250
 SOSCF                  CNVSOSCF        .... on
   Start iteration      SOSCFMaxIt      ....   150
   Startup grad/error   SOSCFStart      ....  0.003300
   Hessian update       SOSCFHessUp     .... L-BFGS
 Level Shifting         CNVShift        .... on
   Level shift para.    LevelShift      ....    0.2500
   Turn off err/grad.   ShiftErr        ....    0.0010
 Zerner damping         CNVZerner       .... off
 Static damping         CNVDamp         .... on
   Fraction old density DampFac         ....    0.7000
   Max. Damping (<1)    DampMax         ....    0.9800
   Min. Damping (>=0)   DampMin         ....    0.0000
   Turn off err/grad.   DampErr         ....    0.1000

SCF Procedure:
 Maximum # iterations   MaxIter         ....   125
 SCF integral mode      SCFMode         .... Direct
   Integral package                     .... SHARK and LIBINT hybrid scheme
 Reset frequency        DirectResetFreq ....    20
 Integral Threshold     Thresh          ....  1.000e-12 Eh
 Primitive CutOff       TCut            ....  1.000e-13 Eh

Convergence Tolerance:
 Convergence Check Mode ConvCheckMode   .... Total+1el-Energy
 Convergence forced     ConvForced      .... 1
 Energy Change          TolE            ....  1.000e-08 Eh
 1-El. energy change                    ....  1.000e-05 Eh
 Orbital Gradient       TolG            ....  1.000e-05
 Orbital Rotation angle TolX            ....  1.000e-05
 DIIS Error             TolErr          ....  5.000e-07

------------------------------
INITIAL GUESS: MODEL POTENTIAL
------------------------------
Loading Hartree-Fock densities                     ... done
Calculating cut-offs                               ... done
Initializing the effective Hamiltonian             ... done
Setting up the integral package (SHARK)            ... done
Starting the Coulomb interaction                   ... done (   0.1 sec)
Making the grid                                    ... done (   0.2 sec)
Mapping shells                                     ... done
Starting the XC term evaluation                    ... done (   0.1 sec)
  promolecular density results
     # of electrons  =    131.998005729
     EX              =   -113.526232997
     EC              =     -4.491323390
     EX+EC           =   -118.017556388
Transforming the Hamiltonian                       ... done (   0.1 sec)
Diagonalizing the Hamiltonian                      ... done (   0.1 sec)
Back transforming the eigenvectors                 ... done (   0.1 sec)
Now organizing SCF variables                       ... done
                      ------------------
                      INITIAL GUESS DONE (   1.1 sec)
                      ------------------
             **** ENERGY FILE WAS UPDATED (orca.en.tmp) ****
Finished Guess after   3.5 sec
Maximum memory used throughout the entire GUESS-calculation: 71.0 MB
[1739875971.606618] [ohm:4182520:0]        ib_iface.c:1059 UCX  ERROR ibv_create_cq(cqe=256) failed: Connection timed out
[1739875971.607557] [ohm:4182524:0]        ib_iface.c:1059 UCX  ERROR ibv_create_cq(cqe=256) failed: Connection timed out
[1739875971.616821] [ohm:4182522:0]        ib_iface.c:1059 UCX  ERROR ibv_create_cq(cqe=256) failed: Connection timed out
[1739875971.618252] [ohm:4182517:0]        ib_iface.c:1059 UCX  ERROR ibv_create_cq(cqe=256) failed: Connection timed out
[1739875971.623468] [ohm:4182525:0]        ib_iface.c:1059 UCX  ERROR ibv_create_cq(cqe=256) failed: Connection timed out
[1739875971.624379] [ohm:4182515:0]        ib_iface.c:1059 UCX  ERROR ibv_create_cq(cqe=256) failed: Connection timed out
[1739875971.624649] [ohm:4182519:0]        ib_iface.c:1059 UCX  ERROR ibv_create_cq(cqe=256) failed: Connection timed out
[1739875971.625005] [ohm:4182521:0]        ib_iface.c:1059 UCX  ERROR ibv_create_cq(cqe=256) failed: Connection timed out
[1739875971.639339] [ohm:4182514:0]        ib_iface.c:1059 UCX  ERROR ibv_create_cq(cqe=256) failed: Connection timed out
[1739875971.653596] [ohm:4182542:0]        ib_iface.c:1059 UCX  ERROR ibv_create_cq(cqe=256) failed: Connection timed out
[1739875971.676192] [ohm:4182523:0]        ib_iface.c:1059 UCX  ERROR ibv_create_cq(cqe=256) failed: Connection timed out
[1739875971.679255] [ohm:4182516:0]        ib_iface.c:1059 UCX  ERROR ibv_create_cq(cqe=256) failed: Connection timed out
[1739875971.685611] [ohm:4182548:0]        ib_iface.c:1059 UCX  ERROR ibv_create_cq(cqe=256) failed: Connection timed out
[1739875971.688584] [ohm:4182661:0]        ib_iface.c:1059 UCX  ERROR ibv_create_cq(cqe=256) failed: Connection timed out
[1739875971.689145] [ohm:4182541:0]        ib_iface.c:1059 UCX  ERROR ibv_create_cq(cqe=256) failed: Connection timed out
[1739875971.696553] [ohm:4182609:0]        ib_iface.c:1059 UCX  ERROR ibv_create_cq(cqe=256) failed: Connection timed out
[1739875971.698255] [ohm:4182534:0]        ib_iface.c:1059 UCX  ERROR ibv_create_cq(cqe=256) failed: Connection timed out
[1739875971.698907] [ohm:4182518:0]        ib_iface.c:1059 UCX  ERROR ibv_create_cq(cqe=256) failed: Connection timed out
[1739875971.703581] [ohm:4182563:0]        ib_iface.c:1059 UCX  ERROR ibv_create_cq(cqe=256) failed: Connection timed out
[1739875971.710508] [ohm:4182550:0]        ib_iface.c:1059 UCX  ERROR ibv_create_cq(cqe=256) failed: Connection timed out
[1739875971.726971] [ohm:4182613:0]        ib_iface.c:1059 UCX  ERROR ibv_create_cq(cqe=256) failed: Connection timed out
[1739875971.731011] [ohm:4182649:0]        ib_iface.c:1059 UCX  ERROR ibv_create_cq(cqe=256) failed: Connection timed out
[1739875971.731127] [ohm:4182627:0]        ib_iface.c:1059 UCX  ERROR ibv_create_cq(cqe=256) failed: Connection timed out
[1739875971.748305] [ohm:4182598:0]        ib_iface.c:1059 UCX  ERROR ibv_create_cq(cqe=256) failed: Connection timed out
[1739875971.776226] [ohm:4182656:0]        ib_iface.c:1059 UCX  ERROR ibv_create_cq(cqe=256) failed: Connection timed out
[1739875971.790816] [ohm:4182665:0]        ib_iface.c:1059 UCX  ERROR ibv_create_cq(cqe=256) failed: Connection timed out
[1739875971.793410] [ohm:4182574:0]        ib_iface.c:1059 UCX  ERROR ibv_create_cq(cqe=256) failed: Connection timed out
[1739875971.795223] [ohm:4182623:0]        ib_iface.c:1059 UCX  ERROR ibv_create_cq(cqe=256) failed: Connection timed out
[1739875971.809742] [ohm:4182667:0]        ib_iface.c:1059 UCX  ERROR ibv_create_cq(cqe=256) failed: Connection timed out
[1739875971.812969] [ohm:4182586:0]        ib_iface.c:1059 UCX  ERROR ibv_create_cq(cqe=256) failed: Connection timed out
[1739875971.817776] [ohm:4182654:0]        ib_iface.c:1059 UCX  ERROR ibv_create_cq(cqe=256) failed: Connection timed out
[1739875971.817935] [ohm:4182545:0]        ib_iface.c:1059 UCX  ERROR ibv_create_cq(cqe=256) failed: Connection timed out
[1739875971.834948] [ohm:4182639:0]        ib_iface.c:1059 UCX  ERROR ibv_create_cq(cqe=256) failed: Connection timed out
[1739875971.835874] [ohm:4182601:0]        ib_iface.c:1059 UCX  ERROR ibv_create_cq(cqe=256) failed: Connection timed out
[1739875971.844726] [ohm:4182579:0]        ib_iface.c:1059 UCX  ERROR ibv_create_cq(cqe=256) failed: Connection timed out
[1739875971.846289] [ohm:4182593:0]        ib_iface.c:1059 UCX  ERROR ibv_create_cq(cqe=256) failed: Connection timed out
[1739875971.850340] [ohm:4182607:0]        ib_iface.c:1059 UCX  ERROR ibv_create_cq(cqe=256) failed: Connection timed out
[1739875971.851852] [ohm:4182646:0]        ib_iface.c:1059 UCX  ERROR ibv_create_cq(cqe=256) failed: Connection timed out
[1739875971.851954] [ohm:4182560:0]        ib_iface.c:1059 UCX  ERROR ibv_create_cq(cqe=256) failed: Connection timed out
[1739875971.858505] [ohm:4182540:0]        ib_iface.c:1059 UCX  ERROR ibv_create_cq(cqe=256) failed: Connection timed out
[1739875971.861905] [ohm:4182566:0]        ib_iface.c:1059 UCX  ERROR ibv_create_cq(cqe=256) failed: Connection timed out
[1739875971.874575] [ohm:4182589:0]        ib_iface.c:1059 UCX  ERROR ibv_create_cq(cqe=256) failed: Connection timed out
[1739875971.881176] [ohm:4182576:0]        ib_iface.c:1059 UCX  ERROR ibv_create_cq(cqe=256) failed: Connection timed out
[1739875971.881499] [ohm:4182539:0]        ib_iface.c:1059 UCX  ERROR ibv_create_cq(cqe=256) failed: Connection timed out
[1739875971.882139] [ohm:4182556:0]        ib_iface.c:1059 UCX  ERROR ibv_create_cq(cqe=256) failed: Connection timed out
[1739875971.882192] [ohm:4182572:0]        ib_iface.c:1059 UCX  ERROR ibv_create_cq(cqe=256) failed: Connection timed out
[1739875971.882528] [ohm:4182544:0]        ib_iface.c:1059 UCX  ERROR ibv_create_cq(cqe=256) failed: Connection timed out
[1739875971.884075] [ohm:4182596:0]        ib_iface.c:1059 UCX  ERROR ibv_create_cq(cqe=256) failed: Connection timed out
[1739875971.888425] [ohm:4182632:0]        ib_iface.c:1059 UCX  ERROR ibv_create_cq(cqe=256) failed: Connection timed out
[1739875971.892838] [ohm:4182626:0]        ib_iface.c:1059 UCX  ERROR ibv_create_cq(cqe=256) failed: Connection timed out
[1739875971.894123] [ohm:4182617:0]        ib_iface.c:1059 UCX  ERROR ibv_create_cq(cqe=256) failed: Connection timed out
[1739875971.898104] [ohm:4182602:0]        ib_iface.c:1059 UCX  ERROR ibv_create_cq(cqe=256) failed: Connection timed out
[1739875971.898525] [ohm:4182592:0]        ib_iface.c:1059 UCX  ERROR ibv_create_cq(cqe=256) failed: Connection timed out
[1739875971.898954] [ohm:4182527:0]        ib_iface.c:1059 UCX  ERROR ibv_create_cq(cqe=256) failed: Connection timed out
[1739875971.899610] [ohm:4182570:0]        ib_iface.c:1059 UCX  ERROR ibv_create_cq(cqe=256) failed: Connection timed out
[1739875971.900636] [ohm:4182620:0]        ib_iface.c:1059 UCX  ERROR ibv_create_cq(cqe=256) failed: Connection timed out
[1739875971.900872] [ohm:4182546:0]        ib_iface.c:1059 UCX  ERROR ibv_create_cq(cqe=256) failed: Connection timed out
[1739875971.901363] [ohm:4182554:0]        ib_iface.c:1059 UCX  ERROR ibv_create_cq(cqe=256) failed: Connection timed out
[1739875971.901494] [ohm:4182581:0]        ib_iface.c:1059 UCX  ERROR ibv_create_cq(cqe=256) failed: Connection timed out
[1739875971.901576] [ohm:4182641:0]        ib_iface.c:1059 UCX  ERROR ibv_create_cq(cqe=256) failed: Connection timed out
[1739875971.902550] [ohm:4182528:0]        ib_iface.c:1059 UCX  ERROR ibv_create_cq(cqe=256) failed: Connection timed out
[1739875971.915661] [ohm:4182535:0]        ib_iface.c:1059 UCX  ERROR ibv_create_cq(cqe=256) failed: Connection timed out
[1739875971.916455] [ohm:4182543:0]        ib_iface.c:1059 UCX  ERROR ibv_create_cq(cqe=256) failed: Connection timed out
[1739875971.936149] [ohm:4182526:0]        ib_iface.c:1059 UCX  ERROR ibv_create_cq(cqe=256) failed: Connection timed out


           ************************************************************
           *        Program running with 64 parallel MPI-processes    *
           *              working on a common directory               *
           ************************************************************

-------------------------------------------------------------------------------------------
                                      ORCA LEAN-SCF
                              memory conserving SCF solver
-------------------------------------------------------------------------------------------

----------------------------------------D-I-I-S--------------------------------------------
Iteration    Energy (Eh)           Delta-E    RMSDP     MaxDP     DIISErr   Damp  Time(sec)
-------------------------------------------------------------------------------------------
               ***  Starting incremental Fock matrix formation  ***
    1    -908.0914492133126714     0.00e+00  1.85e-03  3.32e-01  1.49e-01  0.700   7.6
    2    -908.3683103269606818    -2.77e-01  1.46e-03  2.25e-01  6.81e-02  0.700   6.5
                               ***Turning on AO-DIIS***
    3    -908.4874989640013609    -1.19e-01  1.06e-03  1.59e-01  2.68e-02  0.700   5.7
    4    -908.5614054894542733    -7.39e-02  2.49e-03  3.44e-01  1.63e-02  0.000   5.6
    5    -908.7281959509057288    -1.67e-01  2.38e-04  6.60e-02  4.12e-03  0.000   5.7
                              *** Initializing SOSCF ***
---------------------------------------S-O-S-C-F--------------------------------------
Iteration    Energy (Eh)           Delta-E    RMSDP     MaxDP     MaxGrad    Time(sec)
--------------------------------------------------------------------------------------
    6    -908.7295834517942694    -1.39e-03  1.36e-04  4.37e-02  2.14e-03     6.4
               *** Restarting incremental Fock matrix formation ***
    7    -908.7302100383788002    -6.27e-04  3.28e-04  4.50e-02  3.16e-03     7.3
    8    -908.7306330448088829    -4.23e-04  2.93e-04  4.81e-02  1.69e-03     6.4
    9    -908.7308183059151361    -1.85e-04  2.04e-04  2.77e-02  1.37e-03     6.5
   10    -908.7309111622041655    -9.29e-05  3.34e-05  1.15e-02  5.19e-04     6.3
   11    -908.7309277980732531    -1.66e-05  1.98e-05  5.78e-03  1.76e-04     6.2
   12    -908.7309335329380247    -5.73e-06  1.15e-05  2.39e-03  2.01e-04     6.0
   13    -908.7309360961346556    -2.56e-06  5.25e-06  6.01e-04  4.49e-05     6.0
   14    -908.7309362361422700    -1.40e-07  1.63e-06  2.03e-04  2.62e-05     5.8
   15    -908.7309363686165398    -1.32e-07  2.38e-06  4.13e-04  8.83e-06     5.5
   16    -908.7309363694928379    -8.76e-10  1.90e-06  5.48e-04  4.85e-06     5.4
                 **** Energy Check signals convergence ****

               *****************************************************
               *                     SUCCESS                       *
               *           SCF CONVERGED AFTER  16 CYCLES          *
               *****************************************************

Recomputing exchange energy using gridx3       ... done (    7.622 sec)
Old exchange energy                            :    -35.023209816 Eh
New exchange energy                            :    -35.023221465 Eh
Exchange energy change after final integration :     -0.000011649 Eh
Total energy after final integration           :   -908.730948019 Eh
             **** ENERGY FILE WAS UPDATED (orca.en.tmp) ****

----------------
TOTAL SCF ENERGY
----------------

Total Energy       :       -908.73094801852278 Eh          -24727.82623 eV

Components:
Nuclear Repulsion  :       1387.67586877332019 Eh           37760.58010 eV
Electronic Energy  :      -2296.40680514281303 Eh          -62488.40602 eV
One Electron Energy:      -3991.79944401467492 Eh         -108622.38513 eV
Two Electron Energy:       1695.39263887186189 Eh           46133.97911 eV

Virial components:
Potential Energy   :      -1814.23571133804307 Eh          -49367.86352 eV
Kinetic Energy     :        905.50476331952018 Eh           24640.03729 eV
Virial Ratio       :          2.00356285778904

DFT components:
N(Alpha)           :       66.999841873198 electrons
N(Beta)            :       64.999863386348 electrons
N(Total)           :      131.999705259546 electrons
E(XC)              :      -86.209034893362 Eh       

---------------
SCF CONVERGENCE
---------------

  Last Energy change         ...    8.7630e-10  Tolerance :   1.0000e-08
  Last MAX-Density change    ...    5.4847e-04  Tolerance :   1.0000e-07
  Last RMS-Density change    ...    1.9030e-06  Tolerance :   5.0000e-09
  Last DIIS Error            ...    2.1429e-03  Tolerance :   5.0000e-07
  Last Orbital Gradient      ...    4.8531e-06  Tolerance :   1.0000e-05
  Last Orbital Rotation      ...    2.6386e-05  Tolerance :   1.0000e-05


----------------------
UHF SPIN CONTAMINATION
----------------------

Warning: in a DFT calculation there is little theoretical justification to 
         calculate <S**2> as in Hartree-Fock theory. We will do it anyways
         but you should keep in mind that the values have only limited relevance

Expectation value of <S**2>     :     2.018978
Ideal value S*(S+1) for S=1.0   :     2.000000
Deviation                       :     0.018978

----------------
ORBITAL ENERGIES
----------------
                 SPIN UP ORBITALS
  NO   OCC          E(Eh)            E(eV) 
   0   1.0000     -19.345864      -526.4277 
   1   1.0000     -19.325879      -525.8839 
   2   1.0000     -19.323976      -525.8321 
   3   1.0000     -19.316981      -525.6418 
   4   1.0000     -14.582653      -396.8142 
   5   1.0000     -14.570842      -396.4928 
   6   1.0000     -14.567962      -396.4144 
   7   1.0000     -14.564879      -396.3305 
   8   1.0000     -10.519003      -286.2366 
   9   1.0000     -10.508859      -285.9606 
  10   1.0000     -10.489564      -285.4356 
  11   1.0000     -10.474086      -285.0144 
  12   1.0000     -10.464785      -284.7613 
  13   1.0000     -10.454395      -284.4786 
  14   1.0000     -10.433439      -283.9083 
  15   1.0000     -10.428315      -283.7689 
  16   1.0000     -10.393611      -282.8245 
  17   1.0000     -10.376086      -282.3477 
  18   1.0000      -1.217354       -33.1259 
  19   1.0000      -1.213542       -33.0222 
  20   1.0000      -1.191605       -32.4252 
  21   1.0000      -1.178163       -32.0594 
  22   1.0000      -1.125526       -30.6271 
  23   1.0000      -1.100239       -29.9390 
  24   1.0000      -1.067215       -29.0404 
  25   1.0000      -1.060873       -28.8678 
  26   1.0000      -0.998466       -27.1696 
  27   1.0000      -0.969576       -26.3835 
  28   1.0000      -0.906529       -24.6679 
  29   1.0000      -0.851153       -23.1611 
  30   1.0000      -0.837312       -22.7844 
  31   1.0000      -0.806476       -21.9453 
  32   1.0000      -0.790493       -21.5104 
  33   1.0000      -0.788097       -21.4452 
  34   1.0000      -0.718249       -19.5446 
  35   1.0000      -0.706564       -19.2266 
  36   1.0000      -0.697016       -18.9668 
  37   1.0000      -0.685745       -18.6601 
  38   1.0000      -0.651125       -17.7180 
  39   1.0000      -0.646871       -17.6022 
  40   1.0000      -0.641590       -17.4585 
  41   1.0000      -0.607544       -16.5321 
  42   1.0000      -0.606062       -16.4918 
  43   1.0000      -0.587257       -15.9801 
  44   1.0000      -0.580626       -15.7996 
  45   1.0000      -0.575234       -15.6529 
  46   1.0000      -0.568865       -15.4796 
  47   1.0000      -0.562299       -15.3009 
  48   1.0000      -0.557276       -15.1643 
  49   1.0000      -0.554880       -15.0991 
  50   1.0000      -0.553950       -15.0737 
  51   1.0000      -0.532924       -14.5016 
  52   1.0000      -0.528476       -14.3806 
  53   1.0000      -0.525294       -14.2940 
  54   1.0000      -0.520418       -14.1613 
  55   1.0000      -0.512110       -13.9352 
  56   1.0000      -0.498597       -13.5675 
  57   1.0000      -0.428735       -11.6665 
  58   1.0000      -0.420676       -11.4472 
  59   1.0000      -0.414697       -11.2845 
  60   1.0000      -0.406433       -11.0596 
  61   1.0000      -0.399018       -10.8578 
  62   1.0000      -0.397199       -10.8083 
  63   1.0000      -0.389458       -10.5977 
  64   1.0000      -0.385337       -10.4856 
  65   1.0000      -0.364803        -9.9268 
  66   1.0000      -0.333718        -9.0809 
  67   0.0000      -0.000407        -0.0111 
  68   0.0000       0.026041         0.7086 
  69   0.0000       0.026644         0.7250 
  70   0.0000       0.032223         0.8768 
  71   0.0000       0.048527         1.3205 
  72   0.0000       0.053444         1.4543 
  73   0.0000       0.056294         1.5318 
  74   0.0000       0.058806         1.6002 
  75   0.0000       0.063746         1.7346 
  76   0.0000       0.065940         1.7943 
  77   0.0000       0.069802         1.8994 

                 SPIN DOWN ORBITALS
  NO   OCC          E(Eh)            E(eV) 
   0   1.0000     -19.340338      -526.2774 
   1   1.0000     -19.323934      -525.8310 
   2   1.0000     -19.320568      -525.7394 
   3   1.0000     -19.316956      -525.6411 
   4   1.0000     -14.582597      -396.8126 
   5   1.0000     -14.570864      -396.4934 
   6   1.0000     -14.567359      -396.3980 
   7   1.0000     -14.564251      -396.3134 
   8   1.0000     -10.519065      -286.2383 
   9   1.0000     -10.508879      -285.9611 
  10   1.0000     -10.490725      -285.4671 
  11   1.0000     -10.475271      -285.0466 
  12   1.0000     -10.464556      -284.7550 
  13   1.0000     -10.453962      -284.4668 
  14   1.0000     -10.422598      -283.6133 
  15   1.0000     -10.417172      -283.4657 
  16   1.0000     -10.394215      -282.8410 
  17   1.0000     -10.376438      -282.3572 
  18   1.0000      -1.215413       -33.0731 
  19   1.0000      -1.211677       -32.9714 
  20   1.0000      -1.185596       -32.2617 
  21   1.0000      -1.172790       -31.9132 
  22   1.0000      -1.123493       -30.5718 
  23   1.0000      -1.098539       -29.8928 
  24   1.0000      -1.064060       -28.9545 
  25   1.0000      -1.058423       -28.8012 
  26   1.0000      -0.987012       -26.8580 
  27   1.0000      -0.951902       -25.9026 
  28   1.0000      -0.899244       -24.4697 
  29   1.0000      -0.846410       -23.0320 
  30   1.0000      -0.827813       -22.5259 
  31   1.0000      -0.801820       -21.8186 
  32   1.0000      -0.789081       -21.4720 
  33   1.0000      -0.785216       -21.3668 
  34   1.0000      -0.715160       -19.4605 
  35   1.0000      -0.701906       -19.0998 
  36   1.0000      -0.691183       -18.8080 
  37   1.0000      -0.680734       -18.5237 
  38   1.0000      -0.643513       -17.5109 
  39   1.0000      -0.642617       -17.4865 
  40   1.0000      -0.631134       -17.1740 
  41   1.0000      -0.600549       -16.3418 
  42   1.0000      -0.595709       -16.2101 
  43   1.0000      -0.581069       -15.8117 
  44   1.0000      -0.572606       -15.5814 
  45   1.0000      -0.568715       -15.4755 
  46   1.0000      -0.562633       -15.3100 
  47   1.0000      -0.557955       -15.1827 
  48   1.0000      -0.551151       -14.9976 
  49   1.0000      -0.548059       -14.9134 
  50   1.0000      -0.546800       -14.8792 
  51   1.0000      -0.526807       -14.3352 
  52   1.0000      -0.519993       -14.1497 
  53   1.0000      -0.515370       -14.0239 
  54   1.0000      -0.510051       -13.8792 
  55   1.0000      -0.505701       -13.7608 
  56   1.0000      -0.493164       -13.4197 
  57   1.0000      -0.421084       -11.4583 
  58   1.0000      -0.416473       -11.3328 
  59   1.0000      -0.408867       -11.1258 
  60   1.0000      -0.394609       -10.7379 
  61   1.0000      -0.390621       -10.6293 
  62   1.0000      -0.386101       -10.5063 
  63   1.0000      -0.383705       -10.4412 
  64   1.0000      -0.378986       -10.3127 
  65   0.0000      -0.081512        -2.2181 
  66   0.0000      -0.058983        -1.6050 
  67   0.0000      -0.000682        -0.0186 
  68   0.0000       0.025991         0.7072 
  69   0.0000       0.026307         0.7158 
  70   0.0000       0.032044         0.8720 
  71   0.0000       0.050920         1.3856 
  72   0.0000       0.053407         1.4533 
  73   0.0000       0.057244         1.5577 
  74   0.0000       0.059076         1.6075 
  75   0.0000       0.064681         1.7601 
*Only the first 10 virtual orbitals were printed.

                    ********************************
                    * MULLIKEN POPULATION ANALYSIS *
                    ********************************

--------------------------------------------
MULLIKEN ATOMIC CHARGES AND SPIN POPULATIONS
--------------------------------------------
   0 O :   -0.646916    0.201238
   1 O :   -0.719489    0.196102
   2 O :   -0.670593    0.000745
   3 O :   -0.675437    0.001435
   4 N :   -0.201866    0.021640
   5 N :   -0.164969    0.013233
   6 N :   -0.113531    0.025331
   7 N :   -0.017492    0.026407
   8 C :   -0.042771    0.386849
   9 C :   -0.444509    0.298157
  10 C :    0.440883    0.150405
  11 C :    0.811714    0.248253
  12 C :   -1.691930    0.002512
  13 C :   -1.376809   -0.010548
  14 C :    0.814723    0.126448
  15 C :    0.782495    0.192627
  16 C :    0.361420    0.001299
  17 C :    0.343444   -0.005392
  18 H :    0.455129    0.026155
  19 H :    0.573974    0.032162
  20 H :    0.334713    0.008396
  21 H :    0.270724    0.011228
  22 H :    0.332037    0.010389
  23 H :    0.343994    0.003283
  24 H :    0.315656    0.018858
  25 H :    0.288688    0.011124
  26 H :    0.032052    0.001309
  27 H :    0.079434    0.001463
  28 H :    0.097873    0.001347
  29 H :    0.087359   -0.002457
Sum of atomic charges         :   -0.0000000
Sum of atomic spin populations:    2.0000000

-----------------------------------------------------
MULLIKEN REDUCED ORBITAL CHARGES AND SPIN POPULATIONS
-----------------------------------------------------
CHARGE
  0 O s       :     4.069022  s :     4.069022
      pz      :     1.633104  p :     4.545879
      px      :     1.327171
      py      :     1.585604
      dz2     :     0.001436  d :     0.030230
      dxz     :     0.010733
      dyz     :     0.000637
      dx2y2   :     0.007243
      dxy     :     0.010180
      f0      :     0.000203  f :     0.001785
      f+1     :     0.000263
      f-1     :     0.000050
      f+2     :     0.000252
      f-2     :     0.000119
      f+3     :     0.000442
[...]
[1739876221.322043] [ohm:4184871:0]        ib_iface.c:1059 UCX  ERROR ibv_create_cq(cqe=256) failed: Connection timed out
[1739876221.323823] [ohm:4184901:0]        ib_iface.c:1059 UCX  ERROR ibv_create_cq(cqe=256) failed: Connection timed out
[1739876221.324621] [ohm:4184948:0]        ib_iface.c:1059 UCX  ERROR ibv_create_cq(cqe=256) failed: Connection timed out
[1739876221.324752] [ohm:4184994:0]        ib_iface.c:1059 UCX  ERROR ibv_create_cq(cqe=256) failed: Connection timed out
[1739876221.326147] [ohm:4184876:0]        ib_iface.c:1059 UCX  ERROR ibv_create_cq(cqe=256) failed: Connection timed out
[1739876221.328200] [ohm:4184981:0]        ib_iface.c:1059 UCX  ERROR ibv_create_cq(cqe=256) failed: Connection timed out
[1739876221.328512] [ohm:4184917:0]        ib_iface.c:1059 UCX  ERROR ibv_create_cq(cqe=256) failed: Connection timed out
[1739876221.328701] [ohm:4184941:0]        ib_iface.c:1059 UCX  ERROR ibv_create_cq(cqe=256) failed: Connection timed out
[1739876221.329135] [ohm:4184976:0]        ib_iface.c:1059 UCX  ERROR ibv_create_cq(cqe=256) failed: Connection timed out
[1739876221.329518] [ohm:4184875:0]        ib_iface.c:1059 UCX  ERROR ibv_create_cq(cqe=256) failed: Connection timed out


           ************************************************************
           *        Program running with 64 parallel MPI-processes    *
           *              working on a common directory               *
           ************************************************************

------------------------------------------------------------------------------
                              ORCA PROPERTY CALCULATIONS
------------------------------------------------------------------------------

GBWName                                 ... orca.gbw
Number of atoms                         ...     30
Number of basis functions               ...    882
Max core memory                         ...   1024 MB

Electric properties:
Dipole moment                           ... YES
Quadrupole moment                       ...  NO
Static polarizability (Dipole/Dipole)   ...  NO
Static polarizability (Dipole/Quad.)    ...  NO
Static polarizability (Quad./Quad.)     ...  NO
Static polarizability (Velocity)        ...  NO

Atomic electric properties:
Dipole moment                           ...  NO
Quadrupole moment                       ...  NO
Static polarizability                   ...  NO

Choice of electric origin               ... Center of mass
Position of electric origin             ...    -0.030315    -0.068751     0.256362

General magnetic properties:
Magnetizability                         ...  NO

EPR properties:
g-Tensor (aka g-matrix)                 ...  NO
Zero-Field splitting spin-orbit         ...  NO
Zero-field splitting spin-spin          ...  NO
Hyperfine couplings                     ...  NO (   0 nuclei)
Quadrupole couplings                    ...  NO (   0 nuclei)
Contact density                         ...  NO (   0 nuclei)

NMR properties:
Chemical shifts                         ...  NO (   0 nuclei)
Spin-rotation constants                 ...  NO (   0 nuclei)
Spin-spin couplings                     ...  NO (   0 nuclei,    0 pairs)

Choice of magnetic origin               ... GIAO
Position of magnetic origin             ...     0.000000     0.000000     0.000000

Properties with geometric perturbations:
SCF Hessian                             ...  NO
IR spectrum                             ...  NO
VCD spectrum                            ...  NO
X-ray spectroscopy properties:
SCF XES/XAS/RIXS spectra                ...  NO


-------------
DIPOLE MOMENT
-------------

Method             : SCF
Type of density    : Electron Density
Multiplicity       :   3
Irrep              :   0
Energy             :  -908.7309480185227812 Eh
Relativity type    : 
Basis              : AO
                                X                 Y                 Z
Electronic contribution:     -3.586204515      -7.998715462      -6.514680956
Nuclear contribution   :      3.760066428       9.380737184       9.084190666
                        -----------------------------------------
Total Dipole Moment    :      0.173861913       1.382021722       2.569509710
                        -----------------------------------------
Magnitude (a.u.)       :      2.922771314
Magnitude (Debye)      :      7.429094282



--------------------
Rotational spectrum 
--------------------
 
Rotational constants in cm-1:             0.021045             0.010675             0.009270 
Rotational constants in MHz :           630.921228           320.015391           277.913227 

Dipole components along the rotational axes: 
x,y,z [a.u.] :    -0.396829    -1.675679    -2.361614 
x,y,z [Debye]:    -1.008660    -4.259237    -6.002745 

 

-------------
DIPOLE MOMENT
-------------

Method             : TDA/CIS
Type of density    : Electron Density
Level              : Relaxed density
State              :   1
Multiplicity       :   3
Irrep              :   0
Energy             :     0.0000000000000000 Eh
Relativity type    : 
Basis              : AO
                                X                 Y                 Z
Electronic contribution:     -3.678069811      -8.026313862      -6.437372436
Nuclear contribution   :      3.760066428       9.380737184       9.084190666
                        -----------------------------------------
Total Dipole Moment    :      0.081996617       1.354423322       2.646818230
                        -----------------------------------------
Magnitude (a.u.)       :      2.974362574
Magnitude (Debye)      :      7.560228842



--------------------
Rotational spectrum 
--------------------
 
Rotational constants in cm-1:             0.021045             0.010675             0.009270 
Rotational constants in MHz :           630.921228           320.015391           277.913227 

Dipole components along the rotational axes: 
x,y,z [a.u.] :    -0.323619    -1.646024    -2.456157 
x,y,z [Debye]:    -0.822575    -4.183862    -6.243055 

 

Dipole moment calculation done in   0.2 sec 

Maximum memory used throughout the entire PROP-calculation: 80.3 MB
[1739876223.756096] [ohm:4185199:0]        ib_iface.c:1059 UCX  ERROR ibv_create_cq(cqe=256) failed: Connection timed out
[1739876223.760644] [ohm:4185206:0]        ib_iface.c:1059 UCX  ERROR ibv_create_cq(cqe=256) failed: Connection timed out
[1739876223.766840] [ohm:4185207:0]        ib_iface.c:1059 UCX  ERROR ibv_create_cq(cqe=256) failed: Connection timed out
[1739876223.773779] [ohm:4185202:0]        ib_iface.c:1059 UCX  ERROR ibv_create_cq(cqe=256) failed: Connection timed out
[1739876223.778966] [ohm:4185219:0]        ib_iface.c:1059 UCX  ERROR ibv_create_cq(cqe=256) failed: Connection timed out
[1739876223.799313] [ohm:4185212:0]        ib_iface.c:1059 UCX  ERROR ibv_create_cq(cqe=256) failed: Connection timed out
[1739876223.814611] [ohm:4185203:0]        ib_iface.c:1059 UCX  ERROR ibv_create_cq(cqe=256) failed: Connection timed out
[1739876223.820159] [ohm:4185222:0]        ib_iface.c:1059 UCX  ERROR ibv_create_cq(cqe=256) failed: Connection timed out
[1739876223.824071] [ohm:4185204:0]        ib_iface.c:1059 UCX  ERROR ibv_create_cq(cqe=256) failed: Connection timed out
[1739876223.831875] [ohm:4185223:0]        ib_iface.c:1059 UCX  ERROR ibv_create_cq(cqe=256) failed: Connection timed out
[1739876223.833129] [ohm:4185225:0]        ib_iface.c:1059 UCX  ERROR ibv_create_cq(cqe=256) failed: Connection timed out
[1739876223.835697] [ohm:4185221:0]        ib_iface.c:1059 UCX  ERROR ibv_create_cq(cqe=256) failed: Connection timed out
[1739876223.849793] [ohm:4185234:0]        ib_iface.c:1059 UCX  ERROR ibv_create_cq(cqe=256) failed: Connection timed out
[1739876223.855729] [ohm:4185209:0]        ib_iface.c:1059 UCX  ERROR ibv_create_cq(cqe=256) failed: Connection timed out
[1739876223.860577] [ohm:4185201:0]        ib_iface.c:1059 UCX  ERROR ibv_create_cq(cqe=256) failed: Connection timed out
[1739876223.862788] [ohm:4185273:0]        ib_iface.c:1059 UCX  ERROR ibv_create_cq(cqe=256) failed: Connection timed out
[1739876223.875086] [ohm:4185200:0]        ib_iface.c:1059 UCX  ERROR ibv_create_cq(cqe=256) failed: Connection timed out
[1739876223.889022] [ohm:4185233:0]        ib_iface.c:1059 UCX  ERROR ibv_create_cq(cqe=256) failed: Connection timed out
[1739876223.889368] [ohm:4185220:0]        ib_iface.c:1059 UCX  ERROR ibv_create_cq(cqe=256) failed: Connection timed out
[1739876223.892042] [ohm:4185304:0]        ib_iface.c:1059 UCX  ERROR ibv_create_cq(cqe=256) failed: Connection timed out
[1739876223.893959] [ohm:4185302:0]        ib_iface.c:1059 UCX  ERROR ibv_create_cq(cqe=256) failed: Connection timed out
[1739876223.903097] [ohm:4185309:0]        ib_iface.c:1059 UCX  ERROR ibv_create_cq(cqe=256) failed: Connection timed out
[1739876223.904583] [ohm:4185265:0]        ib_iface.c:1059 UCX  ERROR ibv_create_cq(cqe=256) failed: Connection timed out
[1739876223.906376] [ohm:4185266:0]        ib_iface.c:1059 UCX  ERROR ibv_create_cq(cqe=256) failed: Connection timed out
[1739876223.908016] [ohm:4185240:0]        ib_iface.c:1059 UCX  ERROR ibv_create_cq(cqe=256) failed: Connection timed out
[1739876223.912268] [ohm:4185278:0]        ib_iface.c:1059 UCX  ERROR ibv_create_cq(cqe=256) failed: Connection timed out
[1739876223.941140] [ohm:4185267:0]        ib_iface.c:1059 UCX  ERROR ibv_create_cq(cqe=256) failed: Connection timed out
[1739876223.944978] [ohm:4185293:0]        ib_iface.c:1059 UCX  ERROR ibv_create_cq(cqe=256) failed: Connection timed out
[1739876223.948718] [ohm:4185239:0]        ib_iface.c:1059 UCX  ERROR ibv_create_cq(cqe=256) failed: Connection timed out
[1739876223.950166] [ohm:4185281:0]        ib_iface.c:1059 UCX  ERROR ibv_create_cq(cqe=256) failed: Connection timed out
[1739876223.954287] [ohm:4185297:0]        ib_iface.c:1059 UCX  ERROR ibv_create_cq(cqe=256) failed: Connection timed out
[1739876223.969498] [ohm:4185299:0]        ib_iface.c:1059 UCX  ERROR ibv_create_cq(cqe=256) failed: Connection timed out
[1739876223.976088] [ohm:4185289:0]        ib_iface.c:1059 UCX  ERROR ibv_create_cq(cqe=256) failed: Connection timed out
[1739876223.981790] [ohm:4185307:0]        ib_iface.c:1059 UCX  ERROR ibv_create_cq(cqe=256) failed: Connection timed out
[1739876223.981778] [ohm:4185311:0]        ib_iface.c:1059 UCX  ERROR ibv_create_cq(cqe=256) failed: Connection timed out
[1739876223.987729] [ohm:4185241:0]        ib_iface.c:1059 UCX  ERROR ibv_create_cq(cqe=256) failed: Connection timed out
[1739876223.994473] [ohm:4185238:0]        ib_iface.c:1059 UCX  ERROR ibv_create_cq(cqe=256) failed: Connection timed out
[1739876223.996467] [ohm:4185291:0]        ib_iface.c:1059 UCX  ERROR ibv_create_cq(cqe=256) failed: Connection timed out
[1739876224.000827] [ohm:4185232:0]        ib_iface.c:1059 UCX  ERROR ibv_create_cq(cqe=256) failed: Connection timed out
[1739876224.003935] [ohm:4185215:0]        ib_iface.c:1059 UCX  ERROR ibv_create_cq(cqe=256) failed: Connection timed out
[1739876224.011762] [ohm:4185236:0]        ib_iface.c:1059 UCX  ERROR ibv_create_cq(cqe=256) failed: Connection timed out
[1739876224.012657] [ohm:4185210:0]        ib_iface.c:1059 UCX  ERROR ibv_create_cq(cqe=256) failed: Connection timed out
[1739876224.022562] [ohm:4185235:0]        ib_iface.c:1059 UCX  ERROR ibv_create_cq(cqe=256) failed: Connection timed out
[1739876224.025524] [ohm:4185230:0]        ib_iface.c:1059 UCX  ERROR ibv_create_cq(cqe=256) failed: Connection timed out
[1739876224.033652] [ohm:4185271:0]        ib_iface.c:1059 UCX  ERROR ibv_create_cq(cqe=256) failed: Connection timed out
[1739876224.035021] [ohm:4185224:0]        ib_iface.c:1059 UCX  ERROR ibv_create_cq(cqe=256) failed: Connection timed out
[1739876224.036368] [ohm:4185286:0]        ib_iface.c:1059 UCX  ERROR ibv_create_cq(cqe=256) failed: Connection timed out
[1739876224.040188] [ohm:4185218:0]        ib_iface.c:1059 UCX  ERROR ibv_create_cq(cqe=256) failed: Connection timed out
[1739876224.043200] [ohm:4185228:0]        ib_iface.c:1059 UCX  ERROR ibv_create_cq(cqe=256) failed: Connection timed out
[1739876224.045562] [ohm:4185226:0]        ib_iface.c:1059 UCX  ERROR ibv_create_cq(cqe=256) failed: Connection timed out
[1739876224.054689] [ohm:4185211:0]        ib_iface.c:1059 UCX  ERROR ibv_create_cq(cqe=256) failed: Connection timed out
[1739876224.054917] [ohm:4185227:0]        ib_iface.c:1059 UCX  ERROR ibv_create_cq(cqe=256) failed: Connection timed out
[1739876224.055230] [ohm:4185231:0]        ib_iface.c:1059 UCX  ERROR ibv_create_cq(cqe=256) failed: Connection timed out
[1739876224.056420] [ohm:4185208:0]        ib_iface.c:1059 UCX  ERROR ibv_create_cq(cqe=256) failed: Connection timed out
[1739876224.057611] [ohm:4185205:0]        ib_iface.c:1059 UCX  ERROR ibv_create_cq(cqe=256) failed: Connection timed out
[1739876224.061465] [ohm:4185217:0]        ib_iface.c:1059 UCX  ERROR ibv_create_cq(cqe=256) failed: Connection timed out
[1739876224.062022] [ohm:4185229:0]        ib_iface.c:1059 UCX  ERROR ibv_create_cq(cqe=256) failed: Connection timed out
[1739876224.062225] [ohm:4185214:0]        ib_iface.c:1059 UCX  ERROR ibv_create_cq(cqe=256) failed: Connection timed out
[1739876224.065856] [ohm:4185237:0]        ib_iface.c:1059 UCX  ERROR ibv_create_cq(cqe=256) failed: Connection timed out
[1739876224.066314] [ohm:4185216:0]        ib_iface.c:1059 UCX  ERROR ibv_create_cq(cqe=256) failed: Connection timed out
[1739876224.067818] [ohm:4185198:0]        ib_iface.c:1059 UCX  ERROR ibv_create_cq(cqe=256) failed: Connection timed out
[1739876224.069754] [ohm:4185197:0]        ib_iface.c:1059 UCX  ERROR ibv_create_cq(cqe=256) failed: Connection timed out
[1739876224.069955] [ohm:4185242:0]        ib_iface.c:1059 UCX  ERROR ibv_create_cq(cqe=256) failed: Connection timed out
[1739876224.074620] [ohm:4185213:0]        ib_iface.c:1059 UCX  ERROR ibv_create_cq(cqe=256) failed: Connection timed out

--------------------------------
SUGGESTED CITATIONS FOR THIS RUN
--------------------------------

Below you find a list of papers that are relevant to this ORCA run
We neither can nor want to force you to cite these papers, but we appreciate if you do
You receive ORCA, which is the product of decades of hard work by many enthusiastic individuals, for free
The only thing we kindly ask in return is that you cite our papers,
We deeply appreciate it, if you show your appreciation for ORCA by not just citing the generic ORCA reference.

Please note that relegating all ORCA citations to the supporting information does *not* help us.
SI sections are not indexed - citations you put there will not count into any citation statistics
But we need these citations in order to attract the funding resources that allow us to do what we are doing

Therefore, if you are a happy ORCA user, please consider citing a few of the papers listed below in the main body of your paper

In addition to the list printed below, the program has created the file orca.bibtex that contains the list in bibtex format
You can import this file easily into all common literature databanks and citation aid programs


List of essential papers. We consider these as the minimum necessary citations

  1. Neese,F.
     Software update: the ORCA program system, version 5.0
     WIRES Comput. Molec. Sci., 2022 12(1)e1606
     doi.org/10.1002/wcms.1606

List of papers to cite with high priority. The work reported in these papers was absolutely
necessary for this run to complete.
Our perspective: the developers of density functionals and basis sets usually get cited in chemistry papers
Good! But without the algorithms to do something with them, the functionals or basis sets would not do anything.
Hence, in our opinion, the algorithm design and method developments papers are equally worthy of getting cited

  1. Neese,F.; Olbrich,G.
     Efficient use of the resolution of the identity approximation in time-dependent density functional calculations with hybrid density functionals
     Chem. Phys. Lett., 2002 362 170-178
     doi.org/10.1016/s0009-2614(02)01053-9
  2. Neese,F.
     An improvement of the resolution of the identity approximation for the formation of the Coulomb matrix
     J. Comp. Chem., 2003 24(14)1740-1747
     doi.org/10.1002/jcc.10318
  3. Neese,F.; Wennmohs,F.; Hansen,A.; Becker,U.
     Efficient, approximate and parallel Hartree-Fock and hybrid DFT calculations. A 'chain-of-spheres' algorithm for the Hartree-Fock exchange
     Chem. Phys., 2009 356(1-3)98-109
     doi.org/10.1016/j.chemphys.2008.10.036
  4. Petrenko,T.; Kossmann,S.; Neese,F.
     Efficient time-dependent density functional theory approximations for hybrid density functionals: Analytical gradients and parallelization
     J. Chem. Phys., 2011 134 054116
     doi.org/10.1063/1.3533441
  5. Helmich-Paris,B.; de Souza,B.; Neese,F.; Izsák,R.
     An improved chain of spheres for exchange algorithm
     J. Chem. Phys., 2021 155 104109
     doi.org/doi: 10.1063/5.0058766.
  6. Neese,F.
     The SHARK Integral Generation and Digestion System
     J. Comp. Chem., 2022  1-16
     doi.org/10.1002/jcc.26942
  7. Lehtola,S.; Steigemann,C.; Oliveira,M.; Marques,M.
     Recent developments in Libxc - A comprehensive library of functionals for density functional theory
     Software X, 2018 7 
     doi.org/10.1016/j.softx.2017.11.002
  8. Grimme,S.; Antony,J.; Ehrlich,S.; Krieg,H.
     A consistent and accurate ab initio parametrization of density functional dispersion correction (DFT-D) for the 94 elements H-Pu
     J. Chem. Phys., 2010 132 154104-XXXX
     doi.org/10.1063/1.3382344
  9. Grimme,S.; Ehrlich,S.; Goerigk,L.
     Effect of the damping function in dispersion corrected density functional theory
     J. Comput. Chem., 2011 32(7)1456-1465
     doi.org/10.1002/jcc.21759

List of suggested additional citations. These are papers that are important in the 'surrounding' of 
of this run, or papers that preceded the highly important papers. If you like your results we are grateful for a citation.

  1. Izsak,R.; Neese,F.
     An overlap fitted chain of spheres exchange method
     J. Chem. Phys., 2011 135 144105
     doi.org/10.1063/1.3646921
  2. Izsak,R.; Hansen,A.; Neese,F.
     The resolution of identity and chain of spheres approximations for the LPNO-CCSD singles Fock term
     Molec. Phys., 2012 110 2413-2417
     doi.org/10.1080/00268976.2012.687466
  3. Neese,F.
     The ORCA program system
     WIRES Comput. Molec. Sci., 2012 2(1)73-78
     doi.org/10.1002/wcms.81
  4. Izsak,R.; Neese,F.; Klopper,W.
     Robust fitting techniques in the chain of spheres approximation to the Fock exchange: The role of the complementary space
     J. Chem. Phys., 2013 139 
     doi.org/10.1063/1.4819264
  5. Neese,F.
     Software update: the ORCA program system, version 4.0
     WIRES Comput. Molec. Sci., 2018 8(1)1-6
     doi.org/10.1002/wcms.1327
  6. Neese,F.; Wennmohs,F.; Becker,U.; Riplinger,C.
     The ORCA quantum chemistry program package
     J. Chem. Phys., 2020 152 Art. No. L224108
     doi.org/10.1063/5.0004608

List of optional additional citations

  1. Neese,F.
     Approximate second-order SCF convergence for spin unrestricted wavefunctions
     Chem. Phys. Lett., 2000 325(1-3)93-98
     doi.org/10.1016/s0009-2614(00)00662-x

Timings for individual modules:

Sum of individual times          ...      262.516 sec (=   4.375 min)
Startup calculation              ...        6.335 sec (=   0.106 min)   2.4 %
SCF iterations                   ...      116.211 sec (=   1.937 min)  44.3 %
Property integrals               ...        4.247 sec (=   0.071 min)   1.6 %
Property calculations            ...        2.859 sec (=   0.048 min)   1.1 %
CIS module                       ...      132.864 sec (=   2.214 min)  50.6 %
                             ****ORCA TERMINATED NORMALLY****
TOTAL RUN TIME: 0 days 0 hours 4 minutes 24 seconds 590 msec
