
                                 *****************
                                 * O   R   C   A *
                                 *****************

                                            #,                                       
                                            ###                                      
                                            ####                                     
                                            #####                                    
                                            ######                                   
                                           ########,                                 
                                     ,,################,,,,,                         
                               ,,#################################,,                 
                          ,,##########################################,,             
                       ,#########################################, ''#####,          
                    ,#############################################,,   '####,        
                  ,##################################################,,,,####,       
                ,###########''''           ''''###############################       
              ,#####''   ,,,,##########,,,,          '''####'''          '####       
            ,##' ,,,,###########################,,,                        '##       
           ' ,,###''''                  '''############,,,                           
         ,,##''                                '''############,,,,        ,,,,,,###''
      ,#''                                            '''#######################'''  
     '                                                          ''''####''''         
             ,#######,   #######,   ,#######,      ##                                
            ,#'     '#,  ##    ##  ,#'     '#,    #''#        ,####,   ,####,        
            ##       ##  ##   ,#'  ##            #'  '#       #'       #'  '#        
            ##       ##  #######   ##           ,######,      #####,   #    #        
            '#,     ,#'  ##    ##  '#,     ,#' ,#      #,     #,   #   #,  ,#        
             '#######'   ##     ##  '#######'  #'      '#     '####' # '####'        



                #########################################################
                #                        -***-                          #
                #          Department of theory and spectroscopy        #
                #                                                       #
                #                      Frank Neese                      #
                #                                                       #
                #     Directorship, Architecture, Infrastructure        #
                #                    SHARK, DRIVERS                     #
                #        Core code/Algorithms in most modules           #
                #                                                       #
                #        Max Planck Institute fuer Kohlenforschung      #
                #                Kaiser Wilhelm Platz 1                 #
                #                 D-45470 Muelheim/Ruhr                 #
                #                      Germany                          #
                #                                                       #
                #                  All rights reserved                  #
                #                        -***-                          #
                #########################################################


                         Program Version 6.0.0  -   RELEASE  -


 With contributions from (in alphabetic order):
   Daniel Aravena         : Magnetic Suceptibility
   Michael Atanasov       : Ab Initio Ligand Field Theory (pilot matlab implementation)
   Alexander A. Auer      : GIAO ZORA, VPT2 properties, NMR spectrum
   Ute Becker             : All parallelization in ORCA, NUMFREQ, NUMCALC
   Giovanni Bistoni       : ED, misc. LED, open-shell LED, HFLD
   Martin Brehm           : Molecular dynamics
   Dmytro Bykov           : pre 5.0 version of the SCF Hessian
   Marcos Casanova-Páez   : Triplet and SCS-CIS(D). UHF-(DLPNO)-IP/EA/STEOM-CCSD. UHF-CVS-IP/STEOM-CCSD
   Vijay G. Chilkuri      : MRCI spin determinant printing, contributions to CSF-ICE
   Pauline Colinet        : FMM embedding
   Dipayan Datta          : RHF DLPNO-CCSD density
   Achintya Kumar Dutta   : EOM-CC, STEOM-CC
   Nicolas Foglia         : Exact transition moments, OPA infrastructure, MCD improvements
   Dmitry Ganyushin       : Spin-Orbit,Spin-Spin,Magnetic field MRCI
   Miquel Garcia          : C-PCM and meta-GGA Hessian, CCSD/C-PCM, Gaussian charge scheme
   Tiago L. C. Gouveia    : GS-ROHF, GS-ROCIS
   Yang Guo               : DLPNO-NEVPT2, F12-NEVPT2, CIM, IAO-localization
   Andreas Hansen         : Spin unrestricted coupled pair/coupled cluster methods
   Ingolf Harden          : AUTO-CI MPn and infrastructure 
   Benjamin Helmich-Paris : MC-RPA, TRAH-(SCF,CASSCF), AVAS, COSX integrals, SCF dyn. polar.
   Lee Huntington         : MR-EOM, pCC
   Robert Izsak           : Overlap fitted RIJCOSX, COSX-SCS-MP3, EOM
   Riya Kayal             : Wick's Theorem for AUTO-CI, AUTO-CI UHF-CCSDT
   Emily Kempfer          : AUTO-CI, RHF CISDT and CCSDT
   Christian Kollmar      : KDIIS, OOCD, Brueckner-CCSD(T), CCSD density, CASPT2, CASPT2-K, improved NEVPT2
   Axel Koslowski         : Symmetry handling
   Simone Kossmann        : Meta GGA functionals, TD-DFT gradient, OOMP2, (MP2 Hessian; deprecated post 5.0)
   Lucas Lang             : DCDCAS
   Marvin Lechner         : AUTO-CI (C++ implementation), FIC-MRCC
   Spencer Leger          : CASSCF response
   Dagmar Lenk            : GEPOL surface, SMD, ORCA-2-JSON
   Dimitrios Liakos       : Extrapolation schemes; Compound Job, initial MDCI parallelization
   Dimitrios Manganas     : Further ROCIS development; embedding schemes. LFT, Crystal Embedding
   Dimitrios Pantazis     : SARC Basis sets
   Anastasios Papadopoulos: AUTO-CI, single reference methods and gradients
   Taras Petrenko         : pre 6.0 DFT Hessian and TD-DFT gradient, (ASA, deprecated), ECA, 1-Electron XAS/XES, NRVS
   Peter Pinski           : DLPNO-MP2, DLPNO-MP2 Gradient
   Christoph Reimann      : Effective Core Potentials
   Marius Retegan         : Local ZFS, SOC
   Christoph Riplinger    : Optimizer, TS searches, QM/MM, DLPNO-CCSD(T), (RO)-DLPNO pert. Triples
   Michael Roemelt        : Original ROCIS implementation
   Masaaki Saitow         : Open-shell DLPNO-CCSD energy and density
   Barbara Sandhoefer     : DKH picture change effects
   Kantharuban Sivalingam : CASSCF convergence/infrastructure, NEVPT2 and variants, FIC-MRCI
   Bernardo de Souza      : ESD, SOC TD-DFT
   Georgi Stoychev        : AutoAux, RI-MP2 NMR, DLPNO-MP2 response, X2C
   Van Anh Tran           : RI-MP2 g-tensors
   Willem Van den Heuvel  : Paramagnetic NMR
   Zikuan Wang            : NOTCH, Electric field optimization 
   Frank Wennmohs         : Technical directorship and infrastructure
   Hang Xu                : AUTO-CI-Response properties 


 We gratefully acknowledge several colleagues who have allowed us to
 interface, adapt or use parts of their codes:
   Stefan Grimme, W. Hujo, H. Kruse, P. Pracht,  : VdW corrections, initial TS optimization,
                  C. Bannwarth, S. Ehlert,         DFT functionals, gCP, sTDA/sTD-DF
                  L. Wittmann, M. Mueller
   Ed Valeev, F. Pavosevic, A. Kumar             : LibInt (2-el integral package), F12 methods
   Garnet Chan, S. Sharma, J. Yang, R. Olivares  : DMRG
   Ulf Ekstrom                                   : XCFun DFT Library
   Mihaly Kallay                                 : mrcc  (arbitrary order and MRCC methods)
   Frank Weinhold                                : gennbo (NPA and NBO analysis)
   Simon Mueller                                 : openCOSMO-RS
   Christopher J. Cramer and Donald G. Truhlar   : smd solvation model
   Lars Goerigk                                  : TD-DFT with DH, B97 family of functionals
   V. Asgeirsson, H. Jonsson                     : NEB implementation
   FAccTs GmbH                                   : IRC, NEB, NEB-TS, DLPNO-Multilevel, CI-OPT
                                                   MM, QMMM, 2- and 3-layer-ONIOM, Crystal-QMMM,
                                                   LR-CPCM, SF, NACMEs, symmetry and pop. for TD-DFT,
                                                   nearIR, NL-DFT gradient (VV10), updates on ESD,
                                                   ML-optimized integration grids, MBIS, APM,
                                                   GOAT, DOCKER, SOLVATOR, interface openCOSMO-RS
   S Lehtola, MJT Oliveira, MAL Marques          : LibXC Library
   Liviu Ungur et al                             : ANISO software


 Your calculation uses the libint2 library for the computation of 2-el integrals
 For citations please refer to: http://libint.valeyev.net

 Your ORCA version has been built with support for libXC version: 6.2.2
 For citations please refer to: https://libxc.gitlab.io

 This ORCA versions uses:
   CBLAS   interface :  Fast vector & matrix operations
   LAPACKE interface :  Fast linear algebra routines
   SCALAPACK package :  Parallel linear algebra routines
   Shared memory     :  Shared parallel matrices
   BLAS/LAPACK       :  OpenBLAS 0.3.27  USE64BITINT DYNAMIC_ARCH NO_AFFINITY Zen SINGLE_THREADED
        Core in use  :  Zen
   Copyright (c) 2011-2014, The OpenBLAS Project


Your calculation utilizes the atom-pairwise dispersion correction
with the Becke-Johnson damping scheme (D3BJ)


Warning: RI is on but no J-basis has been assigned. Assigning Def2/J (nothing to worry about!)
================================================================================

----- Orbital basis set information -----
Your calculation utilizes the basis: def2-TZVPPD
   F. Weigend and R. Ahlrichs, Phys. Chem. Chem. Phys. 7, 3297 (2005).
   D. Rappoport and F. Furche, J. Chem. Phys. 133, 134105 (2010)
   D. Rappoport, J. Chem. Phys. 155, 124102 (2021).

----- AuxJ basis set information -----
Your calculation utilizes the auxiliary basis: def2/J
   F. Weigend, Phys. Chem. Chem. Phys. 8, 1057 (2006).

================================================================================
                                        WARNINGS
                       Please study these warnings very carefully!
================================================================================

Using LibXC functional ID 531 : wB97M-V exchange-correlation functional
[ 1]  N. Mardirossian and M. Head-Gordon.,  J. Chem. Phys. 144, 214110 (2016)
Using LibXC functional ID 531 : wB97M-V exchange-correlation functional
[ 1]  N. Mardirossian and M. Head-Gordon.,  J. Chem. Phys. 144, 214110 (2016)

WARNING: B97M-V or wB97M-V functional requested.
  ===> : libXC variant has now been activated.
         Any manually given DFX/HFX/RangeSep scaling parameters are IGNORED!

Your calculation utilizes LibXC
 by S Lehtola, C Steigemann, MJT Oliveira & MAL Marques
Please cite in your paper:
 S Lehtola, C Steigemann, MJT Oliveira & MAL Marques, SoftwareX, 7, (2018), 1.
   


WARNING: your system is open-shell and RHF/RKS was chosen
  ===> : WILL SWITCH to UHF/UKS

INFO   : Checking CIS options ...

WARNING: CIS/ROCIS methods need fully converged wavefunctions
  ===> : Setting SCFConvForced true
         You can overwrite this default with %scf ConvForced false 


================================================================================
                                       INPUT FILE
================================================================================
NAME = orca.inp
|  1> ! Engrad def2-TZVPPD wB97M-D3BJ 
|  2> %pal nprocs 8 end%pal nprocs 64 end 
|  3> %tddft 
|  4>  Iroot 2 Nroots 3 
|  5> sf true 
|  6> end 
|  7> *xyz 0 3 
|  8> O   3.17620821 0.37024568 -0.85304296
|  9> O   -0.62183214 1.53996117 -2.27125412
| 10> O   0.41956461 -3.08715208 -0.34220464
| 11> O   -2.99912941 -1.76398768 -0.50111542
| 12> N   0.33096846 -1.46464316 1.23121032
| 13> N   -2.09522364 -0.14919462 0.94451649
| 14> N   1.51635546 -1.17015564 -0.72550713
| 15> N   -1.51351092 -0.29835684 -1.27810536
| 16> C   1.64356158 0.55668502 0.92382759
| 17> C   -0.85402932 1.61016264 0.03355096
| 18> C   0.45299138 -0.08185006 1.60032873
| 19> C   -0.96304972 0.71546916 1.21707435
| 20> C   2.42114426 1.61644688 1.62973349
| 21> C   -0.65180501 3.04898487 0.18063985
| 22> C   2.16926859 -0.00689753 -0.26801584
| 23> C   -0.96667313 0.98074043 -1.24948561
| 24> C   0.71349702 -1.95987593 0.00408998
| 25> C   -2.26792929 -0.83511519 -0.26621298
| 26> H   0.52252435 -0.00369518 2.68709628
| 27> H   -1.17057351 1.30764486 2.10630356
| 28> H   3.42402025 1.51403336 1.16337464
| 29> H   2.0591587 2.61596989 1.4571479
| 30> H   2.43687347 1.39782902 2.70249781
| 31> H   -1.48868591 3.46010902 0.76400287
| 32> H   0.20833565 3.23812239 0.7838582
| 33> H   -0.63262748 3.53252001 -0.78984825
| 34> H   -0.40676279 -2.0520085 1.63527602
| 35> H   -2.4410761 -0.71412452 1.71879424
| 36> H   1.85678365 -1.56559311 -1.57832434
| 37> H   -1.62592304 -0.71762494 -2.19612286
| 38> *
| 39> 
| 40>                          ****END OF INPUT****
================================================================================

                     *******************************
                     * Energy+Gradient Calculation *
                     *******************************

---------------------------------
CARTESIAN COORDINATES (ANGSTROEM)
---------------------------------
  O      3.176208    0.370246   -0.853043
  O     -0.621832    1.539961   -2.271254
  O      0.419565   -3.087152   -0.342205
  O     -2.999129   -1.763988   -0.501115
  N      0.330968   -1.464643    1.231210
  N     -2.095224   -0.149195    0.944516
  N      1.516355   -1.170156   -0.725507
  N     -1.513511   -0.298357   -1.278105
  C      1.643562    0.556685    0.923828
  C     -0.854029    1.610163    0.033551
  C      0.452991   -0.081850    1.600329
  C     -0.963050    0.715469    1.217074
  C      2.421144    1.616447    1.629733
  C     -0.651805    3.048985    0.180640
  C      2.169269   -0.006898   -0.268016
  C     -0.966673    0.980740   -1.249486
  C      0.713497   -1.959876    0.004090
  C     -2.267929   -0.835115   -0.266213
  H      0.522524   -0.003695    2.687096
  H     -1.170574    1.307645    2.106304
  H      3.424020    1.514033    1.163375
  H      2.059159    2.615970    1.457148
  H      2.436873    1.397829    2.702498
  H     -1.488686    3.460109    0.764003
  H      0.208336    3.238122    0.783858
  H     -0.632627    3.532520   -0.789848
  H     -0.406763   -2.052008    1.635276
  H     -2.441076   -0.714125    1.718794
  H      1.856784   -1.565593   -1.578324
  H     -1.625923   -0.717625   -2.196123

----------------------------
CARTESIAN COORDINATES (A.U.)
----------------------------
  NO LB      ZA    FRAG     MASS         X           Y           Z
   0 O     8.0000    0    15.999    6.002164    0.699663   -1.612018
   1 O     8.0000    0    15.999   -1.175092    2.910105   -4.292048
   2 O     8.0000    0    15.999    0.792862   -5.833872   -0.646673
   3 O     8.0000    0    15.999   -5.667533   -3.333454   -0.946971
   4 N     7.0000    0    14.007    0.625440   -2.767774    2.326650
   5 N     7.0000    0    14.007   -3.959399   -0.281937    1.784877
   6 N     7.0000    0    14.007    2.865497   -2.211274   -1.371010
   7 N     7.0000    0    14.007   -2.860121   -0.563813   -2.415269
   8 C     6.0000    0    12.011    3.105881    1.051982    1.745781
   9 C     6.0000    0    12.011   -1.613882    3.042766    0.063402
  10 C     6.0000    0    12.011    0.856030   -0.154674    3.024183
  11 C     6.0000    0    12.011   -1.819900    1.352041    2.299937
  12 C     6.0000    0    12.011    4.575300    3.054642    3.079750
  13 C     6.0000    0    12.011   -1.231733    5.761746    0.341360
  14 C     6.0000    0    12.011    4.099324   -0.013034   -0.506477
  15 C     6.0000    0    12.011   -1.826747    1.853331   -2.361186
  16 C     6.0000    0    12.011    1.348314   -3.703629    0.007729
  17 C     6.0000    0    12.011   -4.285765   -1.578139   -0.503070
  18 H     1.0000    0     1.008    0.987428   -0.006983    5.077876
  19 H     1.0000    0     1.008   -2.212063    2.471091    3.980337
  20 H     1.0000    0     1.008    6.470461    2.861108    2.198459
  21 H     1.0000    0     1.008    3.891246    4.943467    2.753610
  22 H     1.0000    0     1.008    4.605023    2.641514    5.106981
  23 H     1.0000    0     1.008   -2.813209    6.538658    1.443756
  24 H     1.0000    0     1.008    0.393697    6.119165    1.481277
  25 H     1.0000    0     1.008   -1.195493    6.675495   -1.492597
  26 H     1.0000    0     1.008   -0.768670   -3.877734    3.090224
  27 H     1.0000    0     1.008   -4.612965   -1.349500    3.248050
  28 H     1.0000    0     1.008    3.508813   -2.958542   -2.982601
  29 H     1.0000    0     1.008   -3.072549   -1.356115   -4.150071

--------------------------------
INTERNAL COORDINATES (ANGSTROEM)
--------------------------------
 O      0   0   0     0.000000000000     0.00000000     0.00000000
 O      1   0   0     4.219557763809     0.00000000     0.00000000
 O      1   2   0     4.451251396793    72.32961259     0.00000000
 O      3   1   2     3.669262251163   106.97427416   341.56459720
 N      3   1   2     2.261861867937    63.05848213   279.33881691
 N      4   3   1     2.348287437022    82.10685730   314.30773303
 N      3   1   2     2.241594592797     9.28799731   358.03456563
 N      4   3   1     2.226847418179    68.33793100    15.47918332
 C      1   2   3     2.353940158842    69.24919369   291.10180908
 C      2   1   3     2.317535379144    76.36840115    75.98878284
 C      5   3   1     1.436403408174   149.99611879    31.89291253
 C      6   4   3     1.450430634198   145.69808951    43.18875863
 C      9   1   2     1.491989666118    94.24758188   240.62332482
 C     10   2   1     1.460390092632    96.66914849    98.45941440
 C      1   2   3     1.224100130835    60.37109088   322.09728178
 C      2   1   3     1.214765011209    81.09453928    44.02175699
 C      3   1   2     1.215346758686    33.12121164   292.33918950
 C      4   3   1     1.205253863086    72.79606778   341.33837536
 H     11   5   3     1.091790605802   109.27572197   195.24905502
 H     12   6   4     1.088332105106   109.21205911   178.23737132
 H     13   9   1     1.110738203795   101.91257784   341.88225587
 H     13   9   1     1.076970556257   114.09360464    98.91947125
 H     13   9   1     1.094926692991   109.22138025   222.88097783
 H     14  10   2     1.099865955743   108.44124853   127.86178019
 H     14  10   2     1.067467720465   110.06343495   241.38718142
 H     14  10   2     1.084445093821   110.58589775     8.70486726
 H      5   3   1     1.025921307789    83.76844017   178.91950046
 H      6   4   3     1.018953262003    87.47195637   265.51709848
 H      7   3  17     0.999779645171    88.52246564   180.25168726
 H      8   4   3     1.015469524263    88.27162771    88.90645027

---------------------------
INTERNAL COORDINATES (A.U.)
---------------------------
 O      0   0   0     0.000000000000     0.00000000     0.00000000
 O      1   0   0     7.973808579861     0.00000000     0.00000000
 O      1   2   0     8.411646093174    72.32961259     0.00000000
 O      3   1   2     6.933900768234   106.97427416   341.56459720
 N      3   1   2     4.274299483160    63.05848213   279.33881691
 N      4   3   1     4.437620139699    82.10685730   314.30773303
 N      3   1   2     4.235999883665     9.28799731   358.03456563
 N      4   3   1     4.208131762388    68.33793100    15.47918332
 C      1   2   3     4.448302235850    69.24919369   291.10180908
 C      2   1   3     4.379507172255    76.36840115    75.98878284
 C      5   3   1     2.714409059280   149.99611879    31.89291253
 C      6   4   3     2.740916674884   145.69808951    43.18875863
 C      9   1   2     2.819451863603    94.24758188   240.62332482
 C     10   2   1     2.759737323767    96.66914849    98.45941440
 C      1   2   3     2.313214007775    60.37109088   322.09728178
 C      2   1   3     2.295573188255    81.09453928    44.02175699
 C      3   1   2     2.296672531665    33.12121164   292.33918950
 C      4   3   1     2.277599723084    72.79606778   341.33837536
 H     11   5   3     2.063185240554   109.27572197   195.24905502
 H     12   6   4     2.056649621404   109.21205911   178.23737132
 H     13   9   1     2.098991011657   101.91257784   341.88225587
 H     13   9   1     2.035179405622   114.09360464    98.91947125
 H     13   9   1     2.069111586472   109.22138025   222.88097783
 H     14  10   2     2.078445440377   108.44124853   127.86178019
 H     14  10   2     2.017221648479   110.06343495   241.38718142
 H     14  10   2     2.049304234597   110.58589775     8.70486726
 H      5   3   1     1.938710306676    83.76844017   178.91950046
 H      6   4   3     1.925542608452    87.47195637   265.51709848
 H      7   3  17     1.889309723643    88.52246564   180.25168726
 H      8   4   3     1.918959298200    88.27162771    88.90645027

---------------------
BASIS SET INFORMATION
---------------------
There are 4 groups of distinct atoms

 Group   1 Type O   : 12s7p3d1f contracted to 6s4p3d1f pattern {621111/4111/111/1}
 Group   2 Type N   : 12s6p3d1f contracted to 6s3p3d1f pattern {621111/411/111/1}
 Group   3 Type C   : 12s6p3d1f contracted to 6s3p3d1f pattern {621111/411/111/1}
 Group   4 Type H   : 5s3p1d contracted to 3s3p1d pattern {311/111/1}

Atom   0O    basis set group =>   1
Atom   1O    basis set group =>   1
Atom   2O    basis set group =>   1
Atom   3O    basis set group =>   1
Atom   4N    basis set group =>   2
Atom   5N    basis set group =>   2
Atom   6N    basis set group =>   2
Atom   7N    basis set group =>   2
Atom   8C    basis set group =>   3
Atom   9C    basis set group =>   3
Atom  10C    basis set group =>   3
Atom  11C    basis set group =>   3
Atom  12C    basis set group =>   3
Atom  13C    basis set group =>   3
Atom  14C    basis set group =>   3
Atom  15C    basis set group =>   3
Atom  16C    basis set group =>   3
Atom  17C    basis set group =>   3
Atom  18H    basis set group =>   4
Atom  19H    basis set group =>   4
Atom  20H    basis set group =>   4
Atom  21H    basis set group =>   4
Atom  22H    basis set group =>   4
Atom  23H    basis set group =>   4
Atom  24H    basis set group =>   4
Atom  25H    basis set group =>   4
Atom  26H    basis set group =>   4
Atom  27H    basis set group =>   4
Atom  28H    basis set group =>   4
Atom  29H    basis set group =>   4
---------------------------------
AUXILIARY/J BASIS SET INFORMATION
---------------------------------
There are 4 groups of distinct atoms

 Group   1 Type O   : 12s5p4d2f1g contracted to 6s4p3d1f1g pattern {711111/2111/211/2/1}
 Group   2 Type N   : 12s5p4d2f1g contracted to 6s4p3d1f1g pattern {711111/2111/211/2/1}
 Group   3 Type C   : 12s5p4d2f1g contracted to 6s4p3d1f1g pattern {711111/2111/211/2/1}
 Group   4 Type H   : 5s2p1d contracted to 3s1p1d pattern {311/2/1}

Atom   0O    basis set group =>   1
Atom   1O    basis set group =>   1
Atom   2O    basis set group =>   1
Atom   3O    basis set group =>   1
Atom   4N    basis set group =>   2
Atom   5N    basis set group =>   2
Atom   6N    basis set group =>   2
Atom   7N    basis set group =>   2
Atom   8C    basis set group =>   3
Atom   9C    basis set group =>   3
Atom  10C    basis set group =>   3
Atom  11C    basis set group =>   3
Atom  12C    basis set group =>   3
Atom  13C    basis set group =>   3
Atom  14C    basis set group =>   3
Atom  15C    basis set group =>   3
Atom  16C    basis set group =>   3
Atom  17C    basis set group =>   3
Atom  18H    basis set group =>   4
Atom  19H    basis set group =>   4
Atom  20H    basis set group =>   4
Atom  21H    basis set group =>   4
Atom  22H    basis set group =>   4
Atom  23H    basis set group =>   4
Atom  24H    basis set group =>   4
Atom  25H    basis set group =>   4
Atom  26H    basis set group =>   4
Atom  27H    basis set group =>   4
Atom  28H    basis set group =>   4
Atom  29H    basis set group =>   4
[1741420154.270211] [ohm:1669125:0]        ib_iface.c:1059 UCX  ERROR ibv_create_cq(cqe=256) failed: Connection timed out
[1741420154.281631] [ohm:1669124:0]        ib_iface.c:1059 UCX  ERROR ibv_create_cq(cqe=256) failed: Connection timed out
[1741420154.282446] [ohm:1669133:0]        ib_iface.c:1059 UCX  ERROR ibv_create_cq(cqe=256) failed: Connection timed out
[1741420154.283227] [ohm:1669199:0]        ib_iface.c:1059 UCX  ERROR ibv_create_cq(cqe=256) failed: Connection timed out
[1741420154.283732] [ohm:1669147:0]        ib_iface.c:1059 UCX  ERROR ibv_create_cq(cqe=256) failed: Connection timed out
[1741420154.286436] [ohm:1669254:0]        ib_iface.c:1059 UCX  ERROR ibv_create_cq(cqe=256) failed: Connection timed out
[1741420154.287583] [ohm:1669123:0]        ib_iface.c:1059 UCX  ERROR ibv_create_cq(cqe=256) failed: Connection timed out
[1741420154.291773] [ohm:1669128:0]        ib_iface.c:1059 UCX  ERROR ibv_create_cq(cqe=256) failed: Connection timed out
[1741420154.297330] [ohm:1669126:0]        ib_iface.c:1059 UCX  ERROR ibv_create_cq(cqe=256) failed: Connection timed out
[1741420154.306265] [ohm:1669140:0]        ib_iface.c:1059 UCX  ERROR ibv_create_cq(cqe=256) failed: Connection timed out
[1741420154.306376] [ohm:1669171:0]        ib_iface.c:1059 UCX  ERROR ibv_create_cq(cqe=256) failed: Connection timed out
[1741420154.310317] [ohm:1669175:0]        ib_iface.c:1059 UCX  ERROR ibv_create_cq(cqe=256) failed: Connection timed out
[1741420154.321376] [ohm:1669235:0]        ib_iface.c:1059 UCX  ERROR ibv_create_cq(cqe=256) failed: Connection timed out
[1741420154.358884] [ohm:1669131:0]        ib_iface.c:1059 UCX  ERROR ibv_create_cq(cqe=256) failed: Connection timed out
[1741420154.394082] [ohm:1669261:0]        ib_iface.c:1059 UCX  ERROR ibv_create_cq(cqe=256) failed: Connection timed out
[1741420154.401661] [ohm:1669191:0]        ib_iface.c:1059 UCX  ERROR ibv_create_cq(cqe=256) failed: Connection timed out
[1741420154.410512] [ohm:1669149:0]        ib_iface.c:1059 UCX  ERROR ibv_create_cq(cqe=256) failed: Connection timed out
[1741420154.416011] [ohm:1669137:0]        ib_iface.c:1059 UCX  ERROR ibv_create_cq(cqe=256) failed: Connection timed out
[1741420154.416590] [ohm:1669217:0]        ib_iface.c:1059 UCX  ERROR ibv_create_cq(cqe=256) failed: Connection timed out
[1741420154.418287] [ohm:1669263:0]        ib_iface.c:1059 UCX  ERROR ibv_create_cq(cqe=256) failed: Connection timed out
[1741420154.429844] [ohm:1669180:0]        ib_iface.c:1059 UCX  ERROR ibv_create_cq(cqe=256) failed: Connection timed out
[1741420154.433284] [ohm:1669210:0]        ib_iface.c:1059 UCX  ERROR ibv_create_cq(cqe=256) failed: Connection timed out
[1741420154.434551] [ohm:1669136:0]        ib_iface.c:1059 UCX  ERROR ibv_create_cq(cqe=256) failed: Connection timed out
[1741420154.438061] [ohm:1669145:0]        ib_iface.c:1059 UCX  ERROR ibv_create_cq(cqe=256) failed: Connection timed out
[1741420154.440799] [ohm:1669223:0]        ib_iface.c:1059 UCX  ERROR ibv_create_cq(cqe=256) failed: Connection timed out
[1741420154.449704] [ohm:1669161:0]        ib_iface.c:1059 UCX  ERROR ibv_create_cq(cqe=256) failed: Connection timed out
[1741420154.453643] [ohm:1669135:0]        ib_iface.c:1059 UCX  ERROR ibv_create_cq(cqe=256) failed: Connection timed out
[1741420154.455224] [ohm:1669187:0]        ib_iface.c:1059 UCX  ERROR ibv_create_cq(cqe=256) failed: Connection timed out
[1741420154.458213] [ohm:1669183:0]        ib_iface.c:1059 UCX  ERROR ibv_create_cq(cqe=256) failed: Connection timed out
[1741420154.463501] [ohm:1669224:0]        ib_iface.c:1059 UCX  ERROR ibv_create_cq(cqe=256) failed: Connection timed out
[1741420154.464952] [ohm:1669241:0]        ib_iface.c:1059 UCX  ERROR ibv_create_cq(cqe=256) failed: Connection timed out
[1741420154.466114] [ohm:1669240:0]        ib_iface.c:1059 UCX  ERROR ibv_create_cq(cqe=256) failed: Connection timed out
[1741420154.475075] [ohm:1669134:0]        ib_iface.c:1059 UCX  ERROR ibv_create_cq(cqe=256) failed: Connection timed out
[1741420154.481398] [ohm:1669127:0]        ib_iface.c:1059 UCX  ERROR ibv_create_cq(cqe=256) failed: Connection timed out
[1741420154.485154] [ohm:1669252:0]        ib_iface.c:1059 UCX  ERROR ibv_create_cq(cqe=256) failed: Connection timed out
[1741420154.496182] [ohm:1669230:0]        ib_iface.c:1059 UCX  ERROR ibv_create_cq(cqe=256) failed: Connection timed out
[1741420154.498579] [ohm:1669138:0]        ib_iface.c:1059 UCX  ERROR ibv_create_cq(cqe=256) failed: Connection timed out
[1741420154.501239] [ohm:1669211:0]        ib_iface.c:1059 UCX  ERROR ibv_create_cq(cqe=256) failed: Connection timed out
[1741420154.503786] [ohm:1669168:0]        ib_iface.c:1059 UCX  ERROR ibv_create_cq(cqe=256) failed: Connection timed out
[1741420154.512377] [ohm:1669166:0]        ib_iface.c:1059 UCX  ERROR ibv_create_cq(cqe=256) failed: Connection timed out
[1741420154.515284] [ohm:1669139:0]        ib_iface.c:1059 UCX  ERROR ibv_create_cq(cqe=256) failed: Connection timed out
[1741420154.518057] [ohm:1669141:0]        ib_iface.c:1059 UCX  ERROR ibv_create_cq(cqe=256) failed: Connection timed out
[1741420154.520045] [ohm:1669268:0]        ib_iface.c:1059 UCX  ERROR ibv_create_cq(cqe=256) failed: Connection timed out
[1741420154.520400] [ohm:1669216:0]        ib_iface.c:1059 UCX  ERROR ibv_create_cq(cqe=256) failed: Connection timed out
[1741420154.524156] [ohm:1669186:0]        ib_iface.c:1059 UCX  ERROR ibv_create_cq(cqe=256) failed: Connection timed out
[1741420154.533467] [ohm:1669154:0]        ib_iface.c:1059 UCX  ERROR ibv_create_cq(cqe=256) failed: Connection timed out
[1741420154.542397] [ohm:1669270:0]        ib_iface.c:1059 UCX  ERROR ibv_create_cq(cqe=256) failed: Connection timed out
[1741420154.548264] [ohm:1669232:0]        ib_iface.c:1059 UCX  ERROR ibv_create_cq(cqe=256) failed: Connection timed out
[1741420154.557506] [ohm:1669203:0]        ib_iface.c:1059 UCX  ERROR ibv_create_cq(cqe=256) failed: Connection timed out
[1741420154.558156] [ohm:1669246:0]        ib_iface.c:1059 UCX  ERROR ibv_create_cq(cqe=256) failed: Connection timed out
[1741420154.560192] [ohm:1669163:0]        ib_iface.c:1059 UCX  ERROR ibv_create_cq(cqe=256) failed: Connection timed out
[1741420154.564604] [ohm:1669157:0]        ib_iface.c:1059 UCX  ERROR ibv_create_cq(cqe=256) failed: Connection timed out
[1741420154.565262] [ohm:1669196:0]        ib_iface.c:1059 UCX  ERROR ibv_create_cq(cqe=256) failed: Connection timed out
[1741420154.569809] [ohm:1669208:0]        ib_iface.c:1059 UCX  ERROR ibv_create_cq(cqe=256) failed: Connection timed out
[1741420154.572796] [ohm:1669248:0]        ib_iface.c:1059 UCX  ERROR ibv_create_cq(cqe=256) failed: Connection timed out
[1741420154.575024] [ohm:1669174:0]        ib_iface.c:1059 UCX  ERROR ibv_create_cq(cqe=256) failed: Connection timed out
[1741420154.575334] [ohm:1669130:0]        ib_iface.c:1059 UCX  ERROR ibv_create_cq(cqe=256) failed: Connection timed out
[1741420154.575905] [ohm:1669153:0]        ib_iface.c:1059 UCX  ERROR ibv_create_cq(cqe=256) failed: Connection timed out
[1741420154.578101] [ohm:1669132:0]        ib_iface.c:1059 UCX  ERROR ibv_create_cq(cqe=256) failed: Connection timed out
[1741420154.579616] [ohm:1669158:0]        ib_iface.c:1059 UCX  ERROR ibv_create_cq(cqe=256) failed: Connection timed out
[1741420154.579620] [ohm:1669155:0]        ib_iface.c:1059 UCX  ERROR ibv_create_cq(cqe=256) failed: Connection timed out
[1741420154.579977] [ohm:1669129:0]        ib_iface.c:1059 UCX  ERROR ibv_create_cq(cqe=256) failed: Connection timed out
[1741420154.581977] [ohm:1669177:0]        ib_iface.c:1059 UCX  ERROR ibv_create_cq(cqe=256) failed: Connection timed out
[1741420154.582179] [ohm:1669156:0]        ib_iface.c:1059 UCX  ERROR ibv_create_cq(cqe=256) failed: Connection timed out


           ************************************************************
           *        Program running with 64 parallel MPI-processes    *
           *              working on a common directory               *
           ************************************************************
------------------------------------------------------------------------------
                             ORCA STARTUP CALCULATIONS
                           -- RI-GTO INTEGRALS CHOSEN --
------------------------------------------------------------------------------
------------------------------------------------------------------------------
                   ___                                                        
                  /   \      - P O W E R E D   B Y -                         
                 /     \                                                     
                 |  |  |   _    _      __       _____    __    __             
                 |  |  |  | |  | |    /  \     |  _  \  |  |  /  |          
                  \  \/   | |  | |   /    \    | | | |  |  | /  /          
                 / \  \   | |__| |  /  /\  \   | |_| |  |  |/  /          
                |  |  |   |  __  | /  /__\  \  |    /   |      \           
                |  |  |   | |  | | |   __   |  |    \   |  |\   \          
                \     /   | |  | | |  |  |  |  | |\  \  |  | \   \       
                 \___/    |_|  |_| |__|  |__|  |_| \__\ |__|  \__/        
                                                                              
                      - O R C A' S   B I G   F R I E N D -                    
                                      &                                       
                       - I N T E G R A L  F E E D E R -                       
                                                                              
 v1 FN, 2020, v2 2021, v3 2022-2024                                           
------------------------------------------------------------------------------


----------------------
SHARK INTEGRAL PACKAGE
----------------------

Number of atoms                             ...     30
Number of basis functions                   ...    882
Number of shells                            ...    322
Maximum angular momentum                    ...      3
Integral batch strategy                     ... SHARK/LIBINT Hybrid
RI-J (if used) integral strategy            ... SPLIT-RIJ (Revised 2003 algorithm where possible)
Printlevel                                  ...      1
Contraction scheme used                     ... SEGMENTED contraction
Prescreening option                         ... SCHWARTZ
   Thresh                                   ... 2.500e-11
   Tcut                                     ... 2.500e-12
   Tpresel                                  ... 2.500e-12 
Coulomb Range Separation                    ... NOT USED
Exchange Range Separation                   ... Long Range
   Mu parameter                             ... 3.000e-01
   Scaling (regular/separated)              ... 1.500e-01 8.500e-01
Multipole approximations                    ... NOT USED
Finite Nucleus Model                        ... NOT USED
CABS basis                                  ... NOT available
Auxiliary Coulomb fitting basis             ... AVAILABLE
   # of basis functions in Aux-J            ...   1014
   # of shells in Aux-J                     ...    330
   Maximum angular momentum in Aux-J        ...      4
Auxiliary J/K fitting basis                 ... NOT available
Auxiliary Correlation fitting basis         ... NOT available
Auxiliary 'external' fitting basis          ... NOT available

Checking pre-screening integrals            ... done (  0.0 sec) Dimension = 322
Check shell pair data                       ... done (  0.0 sec)
Shell pair information
Shell pair cut-off parameter TPreSel        ...   2.5e-12
Total number of shell pairs                 ...     52003
Shell pairs after pre-screening             ...     45254
Total number of primitive shell pairs       ...    129718
Primitive shell pairs kept                  ...     84667
          la=0 lb=0:   8754 shell pairs
          la=1 lb=0:  11953 shell pairs
          la=1 lb=1:   4115 shell pairs
          la=2 lb=0:   8140 shell pairs
          la=2 lb=1:   5631 shell pairs
          la=2 lb=2:   1940 shell pairs
          la=3 lb=0:   2084 shell pairs
          la=3 lb=1:   1480 shell pairs
          la=3 lb=2:   1013 shell pairs
          la=3 lb=3:    144 shell pairs

Calculating one electron integrals          ... done (  0.2 sec)
Calculating RI/J V-Matrix + Cholesky decomp.... done (  0.1 sec)
Calculating Nuclear repulsion               ... done (  0.0 sec) ENN=   1458.638196114856 Eh

Diagonalization of the overlap matrix:
Smallest eigenvalue                        ... 3.716e-07
Time for diagonalization                   ...    0.125 sec
Threshold for overlap eigenvalues          ... 1.000e-07
Number of eigenvalues below threshold      ... 0

IMPORTANT:
Smallest eigenvalue of S below the DiffSThresh (1.000e-06) while
Thresh>1e-12 and/or TCut>1e-13! In order to avoid SCF convergence issues,
Thresh will be set to at least 1e-12 and TCut to at least 1e-13.
This can be turned off by adding %SCF DiffSThresh -1 END to the input.

Time for construction of square roots      ...    0.138 sec
Total time needed                          ...    0.280 sec

-------------------
DFT GRID GENERATION
-------------------

General Integration Accuracy     IntAcc      ... 4.388
Radial Grid Type                 RadialGrid  ... OptM3 with GC (2021)
Angular Grid (max. ang.)         AngularGrid ... 4 (Lebedev-302)
Angular grid pruning method      GridPruning ... 4 (adaptive)
Weight generation scheme         WeightScheme... mBecke (2022)
Basis function cutoff            BFCut       ... 1.0000e-11
Integration weight cutoff        WCut        ... 1.0000e-14
Partially contracted basis set               ... off
Rotationally invariant grid construction     ... off
Angular grids for H and He will be reduced by one unit
Diffuse basis detected: some atoms will have their outermost
                        angular grid increased by 1.

Total number of grid points                  ...   151927
Total number of batches                      ...     2390
Average number of points per batch           ...       63
Average number of grid points per atom       ...     5064

--------------------
COSX GRID GENERATION
--------------------

GRIDX 1
-------
General Integration Accuracy     IntAcc      ... 3.816
Radial Grid Type                 RadialGrid  ... OptM3 with GC (2021)
Angular Grid (max. ang.)         AngularGrid ... 1 (Lebedev-50)
Angular grid pruning method      GridPruning ... 4 (adaptive)
Weight generation scheme         WeightScheme... mBecke (2022)
Basis function cutoff            BFCut       ... 1.0000e-11
Integration weight cutoff        WCut        ... 1.0000e-14
Partially contracted basis set               ... on
Rotationally invariant grid construction     ... off
Angular grids for H and He will be reduced by one unit
Diffuse basis detected: some atoms will have their outermost
                        angular grid increased by 1.

Total number of grid points                  ...    19015
Total number of batches                      ...      166
Average number of points per batch           ...      114
Average number of grid points per atom       ...      634
UseSFitting                                  ... on

GRIDX 2
-------
General Integration Accuracy     IntAcc      ... 4.020
Radial Grid Type                 RadialGrid  ... OptM3 with GC (2021)
Angular Grid (max. ang.)         AngularGrid ... 2 (Lebedev-110)
Angular grid pruning method      GridPruning ... 4 (adaptive)
Weight generation scheme         WeightScheme... mBecke (2022)
Basis function cutoff            BFCut       ... 1.0000e-11
Integration weight cutoff        WCut        ... 1.0000e-14
Partially contracted basis set               ... on
Rotationally invariant grid construction     ... off
Angular grids for H and He will be reduced by one unit
Diffuse basis detected: some atoms will have their outermost
                        angular grid increased by 1.

Total number of grid points                  ...    45810
Total number of batches                      ...      372
Average number of points per batch           ...      123
Average number of grid points per atom       ...     1527
UseSFitting                                  ... on

GRIDX 3
-------
General Integration Accuracy     IntAcc      ... 4.338
Radial Grid Type                 RadialGrid  ... OptM3 with GC (2021)
Angular Grid (max. ang.)         AngularGrid ... 3 (Lebedev-194)
Angular grid pruning method      GridPruning ... 4 (adaptive)
Weight generation scheme         WeightScheme... mBecke (2022)
Basis function cutoff            BFCut       ... 1.0000e-11
Integration weight cutoff        WCut        ... 1.0000e-14
Partially contracted basis set               ... on
Rotationally invariant grid construction     ... off
Angular grids for H and He will be reduced by one unit
Diffuse basis detected: some atoms will have their outermost
                        angular grid increased by 1.

Total number of grid points                  ...   100901
Total number of batches                      ...      802
Average number of points per batch           ...      125
Average number of grid points per atom       ...     3363
UseSFitting                                  ... on
Initializing property integral containers    ... done (  0.0 sec)

SHARK setup successfully completed in   4.2 seconds

Maximum memory used throughout the entire STARTUP-calculation: 80.3 MB
[1741420160.711278] [ohm:1669489:0]        ib_iface.c:1059 UCX  ERROR ibv_create_cq(cqe=256) failed: Connection timed out
[1741420160.765007] [ohm:1669477:0]        ib_iface.c:1059 UCX  ERROR ibv_create_cq(cqe=256) failed: Connection timed out
[1741420160.790698] [ohm:1669542:0]        ib_iface.c:1059 UCX  ERROR ibv_create_cq(cqe=256) failed: Connection timed out
[1741420160.793188] [ohm:1669487:0]        ib_iface.c:1059 UCX  ERROR ibv_create_cq(cqe=256) failed: Connection timed out
[1741420160.793302] [ohm:1669491:0]        ib_iface.c:1059 UCX  ERROR ibv_create_cq(cqe=256) failed: Connection timed out
[1741420160.797409] [ohm:1669502:0]        ib_iface.c:1059 UCX  ERROR ibv_create_cq(cqe=256) failed: Connection timed out
[1741420160.798612] [ohm:1669483:0]        ib_iface.c:1059 UCX  ERROR ibv_create_cq(cqe=256) failed: Connection timed out
[1741420160.802685] [ohm:1669480:0]        ib_iface.c:1059 UCX  ERROR ibv_create_cq(cqe=256) failed: Connection timed out
[1741420160.803450] [ohm:1669484:0]        ib_iface.c:1059 UCX  ERROR ibv_create_cq(cqe=256) failed: Connection timed out
[1741420160.803442] [ohm:1669520:0]        ib_iface.c:1059 UCX  ERROR ibv_create_cq(cqe=256) failed: Connection timed out
[1741420160.804042] [ohm:1669495:0]        ib_iface.c:1059 UCX  ERROR ibv_create_cq(cqe=256) failed: Connection timed out
[1741420160.807492] [ohm:1669478:0]        ib_iface.c:1059 UCX  ERROR ibv_create_cq(cqe=256) failed: Connection timed out
[1741420160.834476] [ohm:1669537:0]        ib_iface.c:1059 UCX  ERROR ibv_create_cq(cqe=256) failed: Connection timed out
[1741420160.836903] [ohm:1669562:0]        ib_iface.c:1059 UCX  ERROR ibv_create_cq(cqe=256) failed: Connection timed out
[1741420160.840390] [ohm:1669488:0]        ib_iface.c:1059 UCX  ERROR ibv_create_cq(cqe=256) failed: Connection timed out
[1741420160.841480] [ohm:1669529:0]        ib_iface.c:1059 UCX  ERROR ibv_create_cq(cqe=256) failed: Connection timed out
[1741420160.848024] [ohm:1669552:0]        ib_iface.c:1059 UCX  ERROR ibv_create_cq(cqe=256) failed: Connection timed out
[1741420160.911184] [ohm:1669584:0]        ib_iface.c:1059 UCX  ERROR ibv_create_cq(cqe=256) failed: Connection timed out
[1741420160.918507] [ohm:1669515:0]        ib_iface.c:1059 UCX  ERROR ibv_create_cq(cqe=256) failed: Connection timed out
[1741420160.923475] [ohm:1669498:0]        ib_iface.c:1059 UCX  ERROR ibv_create_cq(cqe=256) failed: Connection timed out
[1741420160.935161] [ohm:1669523:0]        ib_iface.c:1059 UCX  ERROR ibv_create_cq(cqe=256) failed: Connection timed out
[1741420160.937528] [ohm:1669479:0]        ib_iface.c:1059 UCX  ERROR ibv_create_cq(cqe=256) failed: Connection timed out
[1741420160.939069] [ohm:1669496:0]        ib_iface.c:1059 UCX  ERROR ibv_create_cq(cqe=256) failed: Connection timed out
[1741420160.959040] [ohm:1669602:0]        ib_iface.c:1059 UCX  ERROR ibv_create_cq(cqe=256) failed: Connection timed out
[1741420160.960121] [ohm:1669573:0]        ib_iface.c:1059 UCX  ERROR ibv_create_cq(cqe=256) failed: Connection timed out
[1741420160.969942] [ohm:1669546:0]        ib_iface.c:1059 UCX  ERROR ibv_create_cq(cqe=256) failed: Connection timed out
[1741420160.995888] [ohm:1669557:0]        ib_iface.c:1059 UCX  ERROR ibv_create_cq(cqe=256) failed: Connection timed out
[1741420160.996185] [ohm:1669587:0]        ib_iface.c:1059 UCX  ERROR ibv_create_cq(cqe=256) failed: Connection timed out
[1741420160.997756] [ohm:1669503:0]        ib_iface.c:1059 UCX  ERROR ibv_create_cq(cqe=256) failed: Connection timed out
[1741420161.006338] [ohm:1669486:0]        ib_iface.c:1059 UCX  ERROR ibv_create_cq(cqe=256) failed: Connection timed out
[1741420161.007082] [ohm:1669493:0]        ib_iface.c:1059 UCX  ERROR ibv_create_cq(cqe=256) failed: Connection timed out
[1741420161.007415] [ohm:1669572:0]        ib_iface.c:1059 UCX  ERROR ibv_create_cq(cqe=256) failed: Connection timed out
[1741420161.015089] [ohm:1669481:0]        ib_iface.c:1059 UCX  ERROR ibv_create_cq(cqe=256) failed: Connection timed out
[1741420161.016525] [ohm:1669507:0]        ib_iface.c:1059 UCX  ERROR ibv_create_cq(cqe=256) failed: Connection timed out
[1741420161.019407] [ohm:1669630:0]        ib_iface.c:1059 UCX  ERROR ibv_create_cq(cqe=256) failed: Connection timed out
[1741420161.020171] [ohm:1669623:0]        ib_iface.c:1059 UCX  ERROR ibv_create_cq(cqe=256) failed: Connection timed out
[1741420161.026726] [ohm:1669591:0]        ib_iface.c:1059 UCX  ERROR ibv_create_cq(cqe=256) failed: Connection timed out
[1741420161.027331] [ohm:1669617:0]        ib_iface.c:1059 UCX  ERROR ibv_create_cq(cqe=256) failed: Connection timed out
[1741420161.028933] [ohm:1669492:0]        ib_iface.c:1059 UCX  ERROR ibv_create_cq(cqe=256) failed: Connection timed out
[1741420161.040723] [ohm:1669567:0]        ib_iface.c:1059 UCX  ERROR ibv_create_cq(cqe=256) failed: Connection timed out
[1741420161.044708] [ohm:1669500:0]        ib_iface.c:1059 UCX  ERROR ibv_create_cq(cqe=256) failed: Connection timed out
[1741420161.048603] [ohm:1669578:0]        ib_iface.c:1059 UCX  ERROR ibv_create_cq(cqe=256) failed: Connection timed out
[1741420161.052717] [ohm:1669499:0]        ib_iface.c:1059 UCX  ERROR ibv_create_cq(cqe=256) failed: Connection timed out
[1741420161.056501] [ohm:1669536:0]        ib_iface.c:1059 UCX  ERROR ibv_create_cq(cqe=256) failed: Connection timed out
[1741420161.059103] [ohm:1669545:0]        ib_iface.c:1059 UCX  ERROR ibv_create_cq(cqe=256) failed: Connection timed out
[1741420161.063885] [ohm:1669603:0]        ib_iface.c:1059 UCX  ERROR ibv_create_cq(cqe=256) failed: Connection timed out
[1741420161.067820] [ohm:1669568:0]        ib_iface.c:1059 UCX  ERROR ibv_create_cq(cqe=256) failed: Connection timed out
[1741420161.068477] [ohm:1669494:0]        ib_iface.c:1059 UCX  ERROR ibv_create_cq(cqe=256) failed: Connection timed out
[1741420161.071633] [ohm:1669609:0]        ib_iface.c:1059 UCX  ERROR ibv_create_cq(cqe=256) failed: Connection timed out
[1741420161.074738] [ohm:1669485:0]        ib_iface.c:1059 UCX  ERROR ibv_create_cq(cqe=256) failed: Connection timed out
[1741420161.076872] [ohm:1669512:0]        ib_iface.c:1059 UCX  ERROR ibv_create_cq(cqe=256) failed: Connection timed out
[1741420161.077775] [ohm:1669598:0]        ib_iface.c:1059 UCX  ERROR ibv_create_cq(cqe=256) failed: Connection timed out
[1741420161.085365] [ohm:1669482:0]        ib_iface.c:1059 UCX  ERROR ibv_create_cq(cqe=256) failed: Connection timed out
[1741420161.093479] [ohm:1669596:0]        ib_iface.c:1059 UCX  ERROR ibv_create_cq(cqe=256) failed: Connection timed out
[1741420161.096763] [ohm:1669525:0]        ib_iface.c:1059 UCX  ERROR ibv_create_cq(cqe=256) failed: Connection timed out
[1741420161.096934] [ohm:1669501:0]        ib_iface.c:1059 UCX  ERROR ibv_create_cq(cqe=256) failed: Connection timed out
[1741420161.103613] [ohm:1669607:0]        ib_iface.c:1059 UCX  ERROR ibv_create_cq(cqe=256) failed: Connection timed out
[1741420161.104253] [ohm:1669636:0]        ib_iface.c:1059 UCX  ERROR ibv_create_cq(cqe=256) failed: Connection timed out
[1741420161.104357] [ohm:1669490:0]        ib_iface.c:1059 UCX  ERROR ibv_create_cq(cqe=256) failed: Connection timed out
[1741420161.104658] [ohm:1669521:0]        ib_iface.c:1059 UCX  ERROR ibv_create_cq(cqe=256) failed: Connection timed out
[1741420161.107583] [ohm:1669579:0]        ib_iface.c:1059 UCX  ERROR ibv_create_cq(cqe=256) failed: Connection timed out
[1741420161.109919] [ohm:1669505:0]        ib_iface.c:1059 UCX  ERROR ibv_create_cq(cqe=256) failed: Connection timed out
[1741420161.110321] [ohm:1669497:0]        ib_iface.c:1059 UCX  ERROR ibv_create_cq(cqe=256) failed: Connection timed out
[1741420161.110506] [ohm:1669531:0]        ib_iface.c:1059 UCX  ERROR ibv_create_cq(cqe=256) failed: Connection timed out


           ************************************************************
           *        Program running with 64 parallel MPI-processes    *
           *              working on a common directory               *
           ************************************************************
-------------------------------------------------------------------------------
                                 ORCA GUESS
                   Start orbitals & Density for SCF / CASSCF
-------------------------------------------------------------------------------

------------
SCF SETTINGS
------------
Hamiltonian:
 Density Functional     Method          .... DFT(GTOs)
  Functional kind                       .... Exchange-Correlation
  Functional name                       .... wB97M-V exchange-correlation functional
  Functional family                     .... Hybrid MGGA
  Functional refs                              
    [ 0] N. Mardirossian and M. Head-Gordon.,  J. Chem. Phys. 144, 214110 (2016), doi: 10.1063/1.4952647
  Fraction of HF Exchange (short range) .... 0.1500
  Fraction of HF Exchange (long range)  .... 1.0000
  Range separation parameter mu         .... 0.3000
  Functional external parameters        .... 17
    Parameter  0 _cx00      =  8.500000e-01 : u^00 coefficient for exchange
    Parameter  1 _cx01      =  1.007000e+00 : u^01 coefficient for exchange
    Parameter  2 _cx10      =  2.590000e-01 : u^10 coefficient for exchange
    Parameter  3 _css00     =  4.430000e-01 : u^00 coefficient for same-spin correlation
    Parameter  4 _css04     = -1.437000e+00 : u^04 coefficient for same-spin correlation
    Parameter  5 _css10     = -4.535000e+00 : u^10 coefficient for same-spin correlation
    Parameter  6 _css20     = -3.390000e+00 : u^20 coefficient for same-spin correlation
    Parameter  7 _css43     =  4.278000e+00 : u^43 coefficient for same-spin correlation
    Parameter  8 _cos00     =  1.000000e+00 : u^00 coefficient for opposite-spin correlation
    Parameter  9 _cos10     =  1.358000e+00 : u^10 coefficient for opposite-spin correlation
    Parameter 10 _cos20     =  2.924000e+00 : u^20 coefficient for opposite-spin correlation
    Parameter 11 _cos21     = -8.812000e+00 : u^21 coefficient for opposite-spin correlation
    Parameter 12 _cos60     = -1.390000e+00 : u^60 coefficient for opposite-spin correlation
    Parameter 13 _cos61     =  9.142000e+00 : u^61 coefficient for opposite-spin correlation
    Parameter 14 _alpha     =  1.000000e+00 : fraction of HF exchange
    Parameter 15 _beta      = -8.500000e-01 : fraction of short-range exchange
    Parameter 16 _omega     =  3.000000e-01 : range-separation constant
 Long-range corrected/Screened/Range-Separated Hybrid DFT is turned on
   Amount of maximum screened exact exchange              ....  0.850000
   Range separation parameter mu (erf(mu*r12)/r12)        ....  0.300000
 RI-approximation to the Coulomb term is turned on
   Number of AuxJ basis functions       .... 1014
   RIJ-COSX (HFX calculated with COS-X)).... on


General Settings:
 Integral files         IntName         .... orca
 Hartree-Fock type      HFTyp           .... UHF
 Total Charge           Charge          ....    0
 Multiplicity           Mult            ....    3
 Number of Electrons    NEL             ....  132
 Basis Dimension        Dim             ....  882
 Nuclear Repulsion      ENuc            ....   1458.6381961149 Eh

Convergence Acceleration:
 AO-DIIS                CNVDIIS         .... on
   Start iteration      DIISMaxIt       ....    12
   Startup error        DIISStart       ....  0.200000
   # of expansion vecs  DIISMaxEq       ....     5
   Bias factor          DIISBfac        ....   1.050
   Max. coefficient     DIISMaxC        ....  10.000
 MO-DIIS                CNVKDIIS        .... off
 Trust-Rad. Augm. Hess. CNVTRAH         .... auto
   Auto Start mean grad. ratio tolernc. ....  1.125000
   Auto Start start iteration           ....    50
   Auto Start num. interpolation iter.  ....    10
   Max. Number of Micro iterations      ....    24
   Max. Number of Macro iterations      .... Maxiter - #DIIS iter
   Number of Davidson start vectors     ....     2
   Converg. threshold    (grad. norm)   ....   1.000e-05
   Grad. Scal. Fac. for Micro threshold ....   0.100
   Minimum threshold for Micro iter.    ....   1.000e-02
   NR start threshold (gradient norm)   ....   1.000e-04
   Initial trust radius                 ....   0.400
   Minimum AH scaling param. (alpha)    ....   1.000
   Maximum AH scaling param. (alpha)    .... 1000.000
   Quad. conv. algorithm                .... NR
   White noise on init. David. guess    .... on
   Maximum white noise                  ....   0.010
   Pseudo random numbers                .... off
   Inactive MOs                         .... canonical
   Orbital update algorithm             .... Taylor
   Preconditioner                       .... Diag
   Full preconditioner red. dimension   ....   250
 SOSCF                  CNVSOSCF        .... on
   Start iteration      SOSCFMaxIt      ....   150
   Startup grad/error   SOSCFStart      ....  0.003300
   Hessian update       SOSCFHessUp     .... L-BFGS
 Level Shifting         CNVShift        .... on
   Level shift para.    LevelShift      ....    0.2500
   Turn off err/grad.   ShiftErr        ....    0.0010
 Zerner damping         CNVZerner       .... off
 Static damping         CNVDamp         .... on
   Fraction old density DampFac         ....    0.7000
   Max. Damping (<1)    DampMax         ....    0.9800
   Min. Damping (>=0)   DampMin         ....    0.0000
   Turn off err/grad.   DampErr         ....    0.1000

SCF Procedure:
 Maximum # iterations   MaxIter         ....   125
 SCF integral mode      SCFMode         .... Direct
   Integral package                     .... SHARK and LIBINT hybrid scheme
 Reset frequency        DirectResetFreq ....    20
 Integral Threshold     Thresh          ....  1.000e-12 Eh
 Primitive CutOff       TCut            ....  1.000e-13 Eh

Convergence Tolerance:
 Convergence Check Mode ConvCheckMode   .... Total+1el-Energy
 Convergence forced     ConvForced      .... 1
 Energy Change          TolE            ....  1.000e-08 Eh
 1-El. energy change                    ....  1.000e-05 Eh
 Orbital Gradient       TolG            ....  1.000e-05
 Orbital Rotation angle TolX            ....  1.000e-05
 DIIS Error             TolErr          ....  5.000e-07

------------------------------
INITIAL GUESS: MODEL POTENTIAL
------------------------------
Loading Hartree-Fock densities                     ... done
Calculating cut-offs                               ... done
Initializing the effective Hamiltonian             ... done
Setting up the integral package (SHARK)            ... done
Starting the Coulomb interaction                   ... done (   0.1 sec)
Making the grid                                    ... done (   0.2 sec)
Mapping shells                                     ... done
Starting the XC term evaluation                    ... done (   0.1 sec)
  promolecular density results
     # of electrons  =    131.996547239
     EX              =   -113.573477328
     EC              =     -4.498954863
     EX+EC           =   -118.072432191
Transforming the Hamiltonian                       ... done (   0.1 sec)
Diagonalizing the Hamiltonian                      ... done (   0.1 sec)
Back transforming the eigenvectors                 ... done (   0.1 sec)
Now organizing SCF variables                       ... done
                      ------------------
                      INITIAL GUESS DONE (   1.1 sec)
                      ------------------
             **** ENERGY FILE WAS UPDATED (orca.en.tmp) ****
Finished Guess after   3.6 sec
Maximum memory used throughout the entire GUESS-calculation: 72.8 MB
[1741420164.935676] [ohm:1669834:0]        ib_iface.c:1059 UCX  ERROR ibv_create_cq(cqe=256) failed: Connection timed out
[1741420164.940886] [ohm:1669835:0]        ib_iface.c:1059 UCX  ERROR ibv_create_cq(cqe=256) failed: Connection timed out
[1741420164.946085] [ohm:1669838:0]        ib_iface.c:1059 UCX  ERROR ibv_create_cq(cqe=256) failed: Connection timed out
[1741420164.950526] [ohm:1669836:0]        ib_iface.c:1059 UCX  ERROR ibv_create_cq(cqe=256) failed: Connection timed out
[1741420164.961458] [ohm:1669832:0]        ib_iface.c:1059 UCX  ERROR ibv_create_cq(cqe=256) failed: Connection timed out
[1741420164.961481] [ohm:1669843:0]        ib_iface.c:1059 UCX  ERROR ibv_create_cq(cqe=256) failed: Connection timed out
[1741420164.974893] [ohm:1669853:0]        ib_iface.c:1059 UCX  ERROR ibv_create_cq(cqe=256) failed: Connection timed out
[1741420164.995141] [ohm:1669837:0]        ib_iface.c:1059 UCX  ERROR ibv_create_cq(cqe=256) failed: Connection timed out
[1741420164.996613] [ohm:1669830:0]        ib_iface.c:1059 UCX  ERROR ibv_create_cq(cqe=256) failed: Connection timed out
[1741420164.997022] [ohm:1669858:0]        ib_iface.c:1059 UCX  ERROR ibv_create_cq(cqe=256) failed: Connection timed out
[1741420164.998251] [ohm:1669849:0]        ib_iface.c:1059 UCX  ERROR ibv_create_cq(cqe=256) failed: Connection timed out
[1741420165.005223] [ohm:1669850:0]        ib_iface.c:1059 UCX  ERROR ibv_create_cq(cqe=256) failed: Connection timed out
[1741420165.009828] [ohm:1669889:0]        ib_iface.c:1059 UCX  ERROR ibv_create_cq(cqe=256) failed: Connection timed out
[1741420165.019694] [ohm:1669906:0]        ib_iface.c:1059 UCX  ERROR ibv_create_cq(cqe=256) failed: Connection timed out
[1741420165.092872] [ohm:1669975:0]        ib_iface.c:1059 UCX  ERROR ibv_create_cq(cqe=256) failed: Connection timed out
[1741420165.096287] [ohm:1669833:0]        ib_iface.c:1059 UCX  ERROR ibv_create_cq(cqe=256) failed: Connection timed out
[1741420165.116917] [ohm:1669854:0]        ib_iface.c:1059 UCX  ERROR ibv_create_cq(cqe=256) failed: Connection timed out
[1741420165.126196] [ohm:1669856:0]        ib_iface.c:1059 UCX  ERROR ibv_create_cq(cqe=256) failed: Connection timed out
[1741420165.127900] [ohm:1669840:0]        ib_iface.c:1059 UCX  ERROR ibv_create_cq(cqe=256) failed: Connection timed out
[1741420165.129099] [ohm:1669911:0]        ib_iface.c:1059 UCX  ERROR ibv_create_cq(cqe=256) failed: Connection timed out
[1741420165.134923] [ohm:1669841:0]        ib_iface.c:1059 UCX  ERROR ibv_create_cq(cqe=256) failed: Connection timed out
[1741420165.137313] [ohm:1669914:0]        ib_iface.c:1059 UCX  ERROR ibv_create_cq(cqe=256) failed: Connection timed out
[1741420165.137498] [ohm:1669925:0]        ib_iface.c:1059 UCX  ERROR ibv_create_cq(cqe=256) failed: Connection timed out
[1741420165.139566] [ohm:1669959:0]        ib_iface.c:1059 UCX  ERROR ibv_create_cq(cqe=256) failed: Connection timed out
[1741420165.140083] [ohm:1669887:0]        ib_iface.c:1059 UCX  ERROR ibv_create_cq(cqe=256) failed: Connection timed out
[1741420165.140286] [ohm:1669845:0]        ib_iface.c:1059 UCX  ERROR ibv_create_cq(cqe=256) failed: Connection timed out
[1741420165.144034] [ohm:1669885:0]        ib_iface.c:1059 UCX  ERROR ibv_create_cq(cqe=256) failed: Connection timed out
[1741420165.144103] [ohm:1669965:0]        ib_iface.c:1059 UCX  ERROR ibv_create_cq(cqe=256) failed: Connection timed out
[1741420165.144491] [ohm:1669846:0]        ib_iface.c:1059 UCX  ERROR ibv_create_cq(cqe=256) failed: Connection timed out
[1741420165.147497] [ohm:1669920:0]        ib_iface.c:1059 UCX  ERROR ibv_create_cq(cqe=256) failed: Connection timed out
[1741420165.147844] [ohm:1669848:0]        ib_iface.c:1059 UCX  ERROR ibv_create_cq(cqe=256) failed: Connection timed out
[1741420165.153837] [ohm:1669831:0]        ib_iface.c:1059 UCX  ERROR ibv_create_cq(cqe=256) failed: Connection timed out
[1741420165.157411] [ohm:1669847:0]        ib_iface.c:1059 UCX  ERROR ibv_create_cq(cqe=256) failed: Connection timed out
[1741420165.158622] [ohm:1669842:0]        ib_iface.c:1059 UCX  ERROR ibv_create_cq(cqe=256) failed: Connection timed out
[1741420165.158967] [ohm:1669839:0]        ib_iface.c:1059 UCX  ERROR ibv_create_cq(cqe=256) failed: Connection timed out
[1741420165.163489] [ohm:1669844:0]        ib_iface.c:1059 UCX  ERROR ibv_create_cq(cqe=256) failed: Connection timed out
[1741420165.165636] [ohm:1669918:0]        ib_iface.c:1059 UCX  ERROR ibv_create_cq(cqe=256) failed: Connection timed out
[1741420165.189004] [ohm:1669855:0]        ib_iface.c:1059 UCX  ERROR ibv_create_cq(cqe=256) failed: Connection timed out
[1741420165.196980] [ohm:1669852:0]        ib_iface.c:1059 UCX  ERROR ibv_create_cq(cqe=256) failed: Connection timed out
[1741420165.198152] [ohm:1669866:0]        ib_iface.c:1059 UCX  ERROR ibv_create_cq(cqe=256) failed: Connection timed out
[1741420165.203563] [ohm:1669880:0]        ib_iface.c:1059 UCX  ERROR ibv_create_cq(cqe=256) failed: Connection timed out
[1741420165.207068] [ohm:1669942:0]        ib_iface.c:1059 UCX  ERROR ibv_create_cq(cqe=256) failed: Connection timed out
[1741420165.208558] [ohm:1669874:0]        ib_iface.c:1059 UCX  ERROR ibv_create_cq(cqe=256) failed: Connection timed out
[1741420165.209818] [ohm:1669929:0]        ib_iface.c:1059 UCX  ERROR ibv_create_cq(cqe=256) failed: Connection timed out
[1741420165.214482] [ohm:1669945:0]        ib_iface.c:1059 UCX  ERROR ibv_create_cq(cqe=256) failed: Connection timed out
[1741420165.215712] [ohm:1669878:0]        ib_iface.c:1059 UCX  ERROR ibv_create_cq(cqe=256) failed: Connection timed out
[1741420165.217586] [ohm:1669931:0]        ib_iface.c:1059 UCX  ERROR ibv_create_cq(cqe=256) failed: Connection timed out
[1741420165.229683] [ohm:1669893:0]        ib_iface.c:1059 UCX  ERROR ibv_create_cq(cqe=256) failed: Connection timed out
[1741420165.236346] [ohm:1669938:0]        ib_iface.c:1059 UCX  ERROR ibv_create_cq(cqe=256) failed: Connection timed out
[1741420165.237981] [ohm:1669949:0]        ib_iface.c:1059 UCX  ERROR ibv_create_cq(cqe=256) failed: Connection timed out
[1741420165.241662] [ohm:1669922:0]        ib_iface.c:1059 UCX  ERROR ibv_create_cq(cqe=256) failed: Connection timed out
[1741420165.247816] [ohm:1669951:0]        ib_iface.c:1059 UCX  ERROR ibv_create_cq(cqe=256) failed: Connection timed out
[1741420165.251674] [ohm:1669857:0]        ib_iface.c:1059 UCX  ERROR ibv_create_cq(cqe=256) failed: Connection timed out
[1741420165.259774] [ohm:1669863:0]        ib_iface.c:1059 UCX  ERROR ibv_create_cq(cqe=256) failed: Connection timed out
[1741420165.263244] [ohm:1669902:0]        ib_iface.c:1059 UCX  ERROR ibv_create_cq(cqe=256) failed: Connection timed out
[1741420165.267954] [ohm:1669954:0]        ib_iface.c:1059 UCX  ERROR ibv_create_cq(cqe=256) failed: Connection timed out
[1741420165.268016] [ohm:1669859:0]        ib_iface.c:1059 UCX  ERROR ibv_create_cq(cqe=256) failed: Connection timed out
[1741420165.268563] [ohm:1669970:0]        ib_iface.c:1059 UCX  ERROR ibv_create_cq(cqe=256) failed: Connection timed out
[1741420165.268893] [ohm:1669870:0]        ib_iface.c:1059 UCX  ERROR ibv_create_cq(cqe=256) failed: Connection timed out
[1741420165.269989] [ohm:1669851:0]        ib_iface.c:1059 UCX  ERROR ibv_create_cq(cqe=256) failed: Connection timed out
[1741420165.270282] [ohm:1669957:0]        ib_iface.c:1059 UCX  ERROR ibv_create_cq(cqe=256) failed: Connection timed out
[1741420165.272884] [ohm:1669967:0]        ib_iface.c:1059 UCX  ERROR ibv_create_cq(cqe=256) failed: Connection timed out
[1741420165.274708] [ohm:1669896:0]        ib_iface.c:1059 UCX  ERROR ibv_create_cq(cqe=256) failed: Connection timed out
[1741420165.274714] [ohm:1669935:0]        ib_iface.c:1059 UCX  ERROR ibv_create_cq(cqe=256) failed: Connection timed out


           ************************************************************
           *        Program running with 64 parallel MPI-processes    *
           *              working on a common directory               *
           ************************************************************

-------------------------------------------------------------------------------------------
                                      ORCA LEAN-SCF
                              memory conserving SCF solver
-------------------------------------------------------------------------------------------

----------------------------------------D-I-I-S--------------------------------------------
Iteration    Energy (Eh)           Delta-E    RMSDP     MaxDP     DIISErr   Damp  Time(sec)
-------------------------------------------------------------------------------------------
               ***  Starting incremental Fock matrix formation  ***
    1    -908.1321952879241053     0.00e+00  1.93e-03  3.80e-01  1.47e-01  0.700   7.9
    2    -908.3980466226300905    -2.66e-01  1.53e-03  2.99e-01  7.03e-02  0.700   6.6
                               ***Turning on AO-DIIS***
    3    -908.5157256423929084    -1.18e-01  1.09e-03  2.11e-01  2.97e-02  0.700   5.8
    4    -908.5882305974553219    -7.25e-02  2.53e-03  4.05e-01  1.96e-02  0.000   5.8
    5    -908.7515636376926977    -1.63e-01  4.19e-04  1.09e-01  5.41e-03  0.000   5.9
                              *** Initializing SOSCF ***
---------------------------------------S-O-S-C-F--------------------------------------
Iteration    Energy (Eh)           Delta-E    RMSDP     MaxDP     MaxGrad    Time(sec)
--------------------------------------------------------------------------------------
    6    -908.7530805831568159    -1.52e-03  1.93e-04  5.39e-02  2.95e-03     6.6
               *** Restarting incremental Fock matrix formation ***
    7    -908.7538210470372633    -7.40e-04  2.95e-04  4.32e-02  5.84e-03     7.4
    8    -908.7543437271453968    -5.23e-04  4.03e-04  1.11e-01  3.26e-03     6.6
    9    -908.7545418206834711    -1.98e-04  1.54e-04  1.34e-02  1.23e-03     6.7
   10    -908.7546460295091038    -1.04e-04  6.34e-05  1.84e-02  4.73e-04     6.5
   11    -908.7546601303085936    -1.41e-05  1.31e-05  3.81e-03  1.47e-04     6.3
   12    -908.7546629392038540    -2.81e-06  8.88e-06  1.88e-03  1.60e-04     6.1
   13    -908.7546644784740693    -1.54e-06  8.09e-06  1.80e-03  4.65e-05     6.1
   14    -908.7546647278811633    -2.49e-07  2.55e-06  8.78e-04  3.31e-05     6.1
   15    -908.7546648050913518    -7.72e-08  2.51e-06  3.74e-04  1.81e-05     5.9
   16    -908.7546648362970245    -3.12e-08  2.36e-06  4.26e-04  7.10e-06     5.7
   17    -908.7546648858449316    -4.95e-08  2.74e-06  5.91e-04  3.20e-06     5.6
   18    -908.7546648211730371     6.47e-08  3.54e-06  6.23e-04  1.27e-06     5.5
                  *** Gradient check signals convergence ***

               *****************************************************
               *                     SUCCESS                       *
               *           SCF CONVERGED AFTER  18 CYCLES          *
               *****************************************************

Recomputing exchange energy using gridx3       ... done (    8.266 sec)
Old exchange energy                            :    -35.048412686 Eh
New exchange energy                            :    -35.048428680 Eh
Exchange energy change after final integration :     -0.000015995 Eh
Total energy after final integration           :   -908.754680816 Eh
             **** ENERGY FILE WAS UPDATED (orca.en.tmp) ****

----------------
TOTAL SCF ENERGY
----------------

Total Energy       :       -908.75468081602548 Eh          -24728.47204 eV

Components:
Nuclear Repulsion  :       1458.63819611485565 Eh           39691.56320 eV
Electronic Energy  :      -2367.39286093602868 Eh          -64420.03480 eV
One Electron Energy:      -4134.40550946710027 Eh         -112502.89345 eV
Two Electron Energy:       1767.01264853107159 Eh           48082.85865 eV

Virial components:
Potential Energy   :      -1814.72440137103490 Eh          -49381.16145 eV
Kinetic Energy     :        905.96972055500942 Eh           24652.68941 eV
Virial Ratio       :          2.00307401030943

DFT components:
N(Alpha)           :       66.999956280681 electrons
N(Beta)            :       64.999970273870 electrons
N(Total)           :      131.999926554551 electrons
E(XC)              :      -86.300773096475 Eh       

---------------
SCF CONVERGENCE
---------------

  Last Energy change         ...   -6.4672e-08  Tolerance :   1.0000e-08
  Last MAX-Density change    ...    6.2261e-04  Tolerance :   1.0000e-07
  Last RMS-Density change    ...    3.5441e-06  Tolerance :   5.0000e-09
  Last DIIS Error            ...    2.9541e-03  Tolerance :   5.0000e-07
  Last Orbital Gradient      ...    1.2678e-06  Tolerance :   1.0000e-05
  Last Orbital Rotation      ...    8.4781e-06  Tolerance :   1.0000e-05


----------------------
UHF SPIN CONTAMINATION
----------------------

Warning: in a DFT calculation there is little theoretical justification to 
         calculate <S**2> as in Hartree-Fock theory. We will do it anyways
         but you should keep in mind that the values have only limited relevance

Expectation value of <S**2>     :     2.015855
Ideal value S*(S+1) for S=1.0   :     2.000000
Deviation                       :     0.015855

----------------
ORBITAL ENERGIES
----------------
                 SPIN UP ORBITALS
  NO   OCC          E(Eh)            E(eV) 
   0   1.0000     -19.339453      -526.2533 
   1   1.0000     -19.331923      -526.0484 
   2   1.0000     -19.323738      -525.8257 
   3   1.0000     -19.308830      -525.4200 
   4   1.0000     -14.567272      -396.3956 
   5   1.0000     -14.558819      -396.1656 
   6   1.0000     -14.558752      -396.1638 
   7   1.0000     -14.558186      -396.1484 
   8   1.0000     -10.505668      -285.8737 
   9   1.0000     -10.495279      -285.5911 
  10   1.0000     -10.482854      -285.2530 
  11   1.0000     -10.475143      -285.0431 
  12   1.0000     -10.449729      -284.3516 
  13   1.0000     -10.444885      -284.2198 
  14   1.0000     -10.424538      -283.6661 
  15   1.0000     -10.410791      -283.2920 
  16   1.0000     -10.377958      -282.3986 
  17   1.0000     -10.371370      -282.2193 
  18   1.0000      -1.223625       -33.2965 
  19   1.0000      -1.217866       -33.1398 
  20   1.0000      -1.198008       -32.5995 
  21   1.0000      -1.194411       -32.5016 
  22   1.0000      -1.118485       -30.4355 
  23   1.0000      -1.097787       -29.8723 
  24   1.0000      -1.067927       -29.0598 
  25   1.0000      -1.053743       -28.6738 
  26   1.0000      -0.983268       -26.7561 
  27   1.0000      -0.959828       -26.1182 
  28   1.0000      -0.886217       -24.1152 
  29   1.0000      -0.843355       -22.9489 
  30   1.0000      -0.836512       -22.7627 
  31   1.0000      -0.805890       -21.9294 
  32   1.0000      -0.785042       -21.3621 
  33   1.0000      -0.776768       -21.1369 
  34   1.0000      -0.701793       -19.0968 
  35   1.0000      -0.692819       -18.8526 
  36   1.0000      -0.688115       -18.7246 
  37   1.0000      -0.663242       -18.0477 
  38   1.0000      -0.658402       -17.9160 
  39   1.0000      -0.652639       -17.7592 
  40   1.0000      -0.612608       -16.6699 
  41   1.0000      -0.603653       -16.4262 
  42   1.0000      -0.595001       -16.1908 
  43   1.0000      -0.588043       -16.0015 
  44   1.0000      -0.585434       -15.9305 
  45   1.0000      -0.574761       -15.6401 
  46   1.0000      -0.568086       -15.4584 
  47   1.0000      -0.562400       -15.3037 
  48   1.0000      -0.555731       -15.1222 
  49   1.0000      -0.552299       -15.0288 
  50   1.0000      -0.546888       -14.8816 
  51   1.0000      -0.540663       -14.7122 
  52   1.0000      -0.531052       -14.4507 
  53   1.0000      -0.529401       -14.4057 
  54   1.0000      -0.517727       -14.0881 
  55   1.0000      -0.507081       -13.7984 
  56   1.0000      -0.491772       -13.3818 
  57   1.0000      -0.422212       -11.4890 
  58   1.0000      -0.419310       -11.4100 
  59   1.0000      -0.410863       -11.1802 
  60   1.0000      -0.409307       -11.1378 
  61   1.0000      -0.397743       -10.8231 
  62   1.0000      -0.392893       -10.6911 
  63   1.0000      -0.388266       -10.5652 
  64   1.0000      -0.385466       -10.4891 
  65   1.0000      -0.342980        -9.3330 
  66   1.0000      -0.328188        -8.9305 
  67   0.0000       0.005807         0.1580 
  68   0.0000       0.027277         0.7422 
  69   0.0000       0.033544         0.9128 
  70   0.0000       0.038479         1.0471 
  71   0.0000       0.053446         1.4543 
  72   0.0000       0.058549         1.5932 
  73   0.0000       0.059542         1.6202 
  74   0.0000       0.062518         1.7012 
  75   0.0000       0.067930         1.8485 
  76   0.0000       0.069872         1.9013 
  77   0.0000       0.085126         2.3164 

                 SPIN DOWN ORBITALS
  NO   OCC          E(Eh)            E(eV) 
   0   1.0000     -19.334262      -526.1120 
   1   1.0000     -19.327040      -525.9155 
   2   1.0000     -19.323460      -525.8181 
   3   1.0000     -19.308697      -525.4164 
   4   1.0000     -14.566573      -396.3766 
   5   1.0000     -14.558535      -396.1579 
   6   1.0000     -14.558305      -396.1516 
   7   1.0000     -14.557811      -396.1382 
   8   1.0000     -10.505697      -285.8745 
   9   1.0000     -10.495322      -285.5922 
  10   1.0000     -10.483912      -285.2817 
  11   1.0000     -10.476153      -285.0706 
  12   1.0000     -10.449469      -284.3445 
  13   1.0000     -10.444282      -284.2033 
  14   1.0000     -10.413533      -283.3666 
  15   1.0000     -10.399556      -282.9863 
  16   1.0000     -10.378487      -282.4130 
  17   1.0000     -10.371894      -282.2336 
  18   1.0000      -1.221658       -33.2430 
  19   1.0000      -1.215151       -33.0659 
  20   1.0000      -1.192206       -32.4416 
  21   1.0000      -1.189175       -32.3591 
  22   1.0000      -1.115603       -30.3571 
  23   1.0000      -1.095302       -29.8047 
  24   1.0000      -1.066097       -29.0100 
  25   1.0000      -1.052116       -28.6295 
  26   1.0000      -0.968642       -26.3581 
  27   1.0000      -0.943136       -25.6640 
  28   1.0000      -0.881675       -23.9916 
  29   1.0000      -0.838218       -22.8091 
  30   1.0000      -0.827845       -22.5268 
  31   1.0000      -0.800436       -21.7810 
  32   1.0000      -0.783619       -21.3234 
  33   1.0000      -0.775156       -21.0931 
  34   1.0000      -0.696920       -18.9642 
  35   1.0000      -0.686806       -18.6890 
  36   1.0000      -0.681318       -18.5396 
  37   1.0000      -0.655110       -17.8265 
  38   1.0000      -0.649258       -17.6672 
  39   1.0000      -0.646865       -17.6021 
  40   1.0000      -0.610635       -16.6162 
  41   1.0000      -0.599250       -16.3064 
  42   1.0000      -0.586269       -15.9532 
  43   1.0000      -0.577703       -15.7201 
  44   1.0000      -0.576891       -15.6980 
  45   1.0000      -0.567592       -15.4450 
  46   1.0000      -0.563260       -15.3271 
  47   1.0000      -0.556515       -15.1436 
  48   1.0000      -0.552055       -15.0222 
  49   1.0000      -0.542703       -14.7677 
  50   1.0000      -0.539753       -14.6874 
  51   1.0000      -0.532908       -14.5012 
  52   1.0000      -0.525230       -14.2922 
  53   1.0000      -0.517229       -14.0745 
  54   1.0000      -0.507017       -13.7966 
  55   1.0000      -0.500020       -13.6062 
  56   1.0000      -0.486149       -13.2288 
  57   1.0000      -0.418421       -11.3858 
  58   1.0000      -0.413550       -11.2533 
  59   1.0000      -0.404348       -11.0029 
  60   1.0000      -0.393997       -10.7212 
  61   1.0000      -0.386957       -10.5296 
  62   1.0000      -0.384683       -10.4678 
  63   1.0000      -0.382367       -10.4047 
  64   1.0000      -0.374999       -10.2042 
  65   0.0000      -0.072649        -1.9769 
  66   0.0000      -0.046551        -1.2667 
  67   0.0000       0.005444         0.1481 
  68   0.0000       0.027274         0.7422 
  69   0.0000       0.033205         0.9036 
  70   0.0000       0.038510         1.0479 
  71   0.0000       0.057173         1.5558 
  72   0.0000       0.058650         1.5960 
  73   0.0000       0.059537         1.6201 
  74   0.0000       0.063263         1.7215 
  75   0.0000       0.068012         1.8507 
*Only the first 10 virtual orbitals were printed.

                    ********************************
                    * MULLIKEN POPULATION ANALYSIS *
                    ********************************

--------------------------------------------
MULLIKEN ATOMIC CHARGES AND SPIN POPULATIONS
--------------------------------------------
   0 O :   -0.668530    0.191016
   1 O :   -0.677754    0.176284
   2 O :   -0.673472    0.005136
   3 O :   -0.627508    0.009823
   4 N :   -0.350302    0.018863
   5 N :   -0.401993    0.030349
   6 N :    0.079750    0.022054
   7 N :    0.029918    0.012474
   8 C :   -0.245043    0.378535
   9 C :   -0.160734    0.407487
  10 C :    0.507523    0.127453
  11 C :    0.924063    0.134106
  12 C :   -1.203301    0.002767
  13 C :   -1.196902    0.056773
  14 C :    0.691709    0.210525
  15 C :    0.265966    0.150813
  16 C :    0.384152   -0.013626
  17 C :    0.352211   -0.005988
  18 H :    0.556286    0.007513
  19 H :    0.468861    0.007066
  20 H :    0.318241    0.008384
  21 H :    0.190919    0.021176
  22 H :    0.340079    0.002097
  23 H :    0.307479    0.016432
  24 H :    0.204380    0.020545
  25 H :    0.327649    0.006469
  26 H :    0.105944   -0.001561
  27 H :    0.110205   -0.002023
  28 H :   -0.001142   -0.001347
  29 H :    0.041345    0.000405
Sum of atomic charges         :   -0.0000000
Sum of atomic spin populations:    2.0000000

-----------------------------------------------------
MULLIKEN REDUCED ORBITAL CHARGES AND SPIN POPULATIONS
-----------------------------------------------------
CHARGE
  0 O s       :     4.095444  s :     4.095444
      pz      :     1.568467  p :     4.540536
      px      :     1.322073
      py      :     1.649996
      dz2     :     0.005625  d :     0.030677
      dxz     :     0.006030
      dyz     :     0.004273
      dx2y2   :     0.009622
      dxy     :     0.005128
[...]
[1741420455.827837] [ohm:1672452:0]        ib_iface.c:1059 UCX  ERROR ibv_create_cq(cqe=256) failed: Connection timed out
[1741420455.827837] [ohm:1672455:0]        ib_iface.c:1059 UCX  ERROR ibv_create_cq(cqe=256) failed: Connection timed out
[1741420455.830418] [ohm:1672338:0]        ib_iface.c:1059 UCX  ERROR ibv_create_cq(cqe=256) failed: Connection timed out
[1741420455.832302] [ohm:1672355:0]        ib_iface.c:1059 UCX  ERROR ibv_create_cq(cqe=256) failed: Connection timed out
[1741420455.833772] [ohm:1672412:0]        ib_iface.c:1059 UCX  ERROR ibv_create_cq(cqe=256) failed: Connection timed out
[1741420455.837386] [ohm:1672443:0]        ib_iface.c:1059 UCX  ERROR ibv_create_cq(cqe=256) failed: Connection timed out
[1741420455.838504] [ohm:1672352:0]        ib_iface.c:1059 UCX  ERROR ibv_create_cq(cqe=256) failed: Connection timed out
[1741420455.838554] [ohm:1672428:0]        ib_iface.c:1059 UCX  ERROR ibv_create_cq(cqe=256) failed: Connection timed out
[1741420455.838548] [ohm:1672325:0]        ib_iface.c:1059 UCX  ERROR ibv_create_cq(cqe=256) failed: Connection timed out
[1741420455.838935] [ohm:1672344:0]        ib_iface.c:1059 UCX  ERROR ibv_create_cq(cqe=256) failed: Connection timed out


           ************************************************************
           *        Program running with 64 parallel MPI-processes    *
           *              working on a common directory               *
           ************************************************************

------------------------------------------------------------------------------
                              ORCA PROPERTY CALCULATIONS
------------------------------------------------------------------------------

GBWName                                 ... orca.gbw
Number of atoms                         ...     30
Number of basis functions               ...    882
Max core memory                         ...   1024 MB

Electric properties:
Dipole moment                           ... YES
Quadrupole moment                       ...  NO
Static polarizability (Dipole/Dipole)   ...  NO
Static polarizability (Dipole/Quad.)    ...  NO
Static polarizability (Quad./Quad.)     ...  NO
Static polarizability (Velocity)        ...  NO

Atomic electric properties:
Dipole moment                           ...  NO
Quadrupole moment                       ...  NO
Static polarizability                   ...  NO

Choice of electric origin               ... Center of mass
Position of electric origin             ...    -0.014450    -0.077304    -0.036121

General magnetic properties:
Magnetizability                         ...  NO

EPR properties:
g-Tensor (aka g-matrix)                 ...  NO
Zero-Field splitting spin-orbit         ...  NO
Zero-field splitting spin-spin          ...  NO
Hyperfine couplings                     ...  NO (   0 nuclei)
Quadrupole couplings                    ...  NO (   0 nuclei)
Contact density                         ...  NO (   0 nuclei)

NMR properties:
Chemical shifts                         ...  NO (   0 nuclei)
Spin-rotation constants                 ...  NO (   0 nuclei)
Spin-spin couplings                     ...  NO (   0 nuclei,    0 pairs)

Choice of magnetic origin               ... GIAO
Position of magnetic origin             ...     0.000000     0.000000     0.000000

Properties with geometric perturbations:
SCF Hessian                             ...  NO
IR spectrum                             ...  NO
VCD spectrum                            ...  NO
X-ray spectroscopy properties:
SCF XES/XAS/RIXS spectra                ...  NO


-------------
DIPOLE MOMENT
-------------

Method             : SCF
Type of density    : Electron Density
Multiplicity       :   3
Irrep              :   0
Energy             :  -908.7546808160254841 Eh
Relativity type    : 
Basis              : AO
                                X                 Y                 Z
Electronic contribution:     -2.750529180     -10.001534857      -7.330143504
Nuclear contribution   :      2.649159362      11.673878257       9.966760524
                        -----------------------------------------
Total Dipole Moment    :     -0.101369819       1.672343401       2.636617020
                        -----------------------------------------
Magnitude (a.u.)       :      3.123901023
Magnitude (Debye)      :      7.940325371



--------------------
Rotational spectrum 
--------------------
 
Rotational constants in cm-1:             0.019128             0.015636             0.012424 
Rotational constants in MHz :           573.446108           468.749828           372.459775 

Dipole components along the rotational axes: 
x,y,z [a.u.] :     0.834496    -1.548712     2.581446 
x,y,z [Debye]:     2.121119    -3.936513     6.561515 

 

-------------
DIPOLE MOMENT
-------------

Method             : TDA/CIS
Type of density    : Electron Density
Level              : Relaxed density
State              :   2
Multiplicity       :   3
Irrep              :   0
Energy             :     0.0000000000000000 Eh
Relativity type    : 
Basis              : AO
                                X                 Y                 Z
Electronic contribution:     -2.790771997      -9.975045228      -7.202828660
Nuclear contribution   :      2.649159362      11.673878257       9.966760524
                        -----------------------------------------
Total Dipole Moment    :     -0.141612636       1.698833029       2.763931863
                        -----------------------------------------
Magnitude (a.u.)       :      3.247369265
Magnitude (Debye)      :      8.254156703



--------------------
Rotational spectrum 
--------------------
 
Rotational constants in cm-1:             0.019128             0.015636             0.012424 
Rotational constants in MHz :           573.446108           468.749828           372.459775 

Dipole components along the rotational axes: 
x,y,z [a.u.] :     0.824804    -1.582880     2.712858 
x,y,z [Debye]:     2.096486    -4.023361     6.895536 

 

Dipole moment calculation done in   0.2 sec 

Maximum memory used throughout the entire PROP-calculation: 81.9 MB
[1741420458.470738] [ohm:1672703:0]        ib_iface.c:1059 UCX  ERROR ibv_create_cq(cqe=256) failed: Connection timed out
[1741420458.474301] [ohm:1672702:0]        ib_iface.c:1059 UCX  ERROR ibv_create_cq(cqe=256) failed: Connection timed out
[1741420458.476609] [ohm:1672707:0]        ib_iface.c:1059 UCX  ERROR ibv_create_cq(cqe=256) failed: Connection timed out
[1741420458.479733] [ohm:1672704:0]        ib_iface.c:1059 UCX  ERROR ibv_create_cq(cqe=256) failed: Connection timed out
[1741420458.548640] [ohm:1672708:0]        ib_iface.c:1059 UCX  ERROR ibv_create_cq(cqe=256) failed: Connection timed out
[1741420458.557922] [ohm:1672705:0]        ib_iface.c:1059 UCX  ERROR ibv_create_cq(cqe=256) failed: Connection timed out
[1741420458.577339] [ohm:1672710:0]        ib_iface.c:1059 UCX  ERROR ibv_create_cq(cqe=256) failed: Connection timed out
[1741420458.589282] [ohm:1672712:0]        ib_iface.c:1059 UCX  ERROR ibv_create_cq(cqe=256) failed: Connection timed out
[1741420458.591343] [ohm:1672715:0]        ib_iface.c:1059 UCX  ERROR ibv_create_cq(cqe=256) failed: Connection timed out
[1741420458.591460] [ohm:1672830:0]        ib_iface.c:1059 UCX  ERROR ibv_create_cq(cqe=256) failed: Connection timed out
[1741420458.604693] [ohm:1672794:0]        ib_iface.c:1059 UCX  ERROR ibv_create_cq(cqe=256) failed: Connection timed out
[1741420458.610657] [ohm:1672701:0]        ib_iface.c:1059 UCX  ERROR ibv_create_cq(cqe=256) failed: Connection timed out
[1741420458.626614] [ohm:1672827:0]        ib_iface.c:1059 UCX  ERROR ibv_create_cq(cqe=256) failed: Connection timed out
[1741420458.626942] [ohm:1672754:0]        ib_iface.c:1059 UCX  ERROR ibv_create_cq(cqe=256) failed: Connection timed out
[1741420458.630423] [ohm:1672762:0]        ib_iface.c:1059 UCX  ERROR ibv_create_cq(cqe=256) failed: Connection timed out
[1741420458.632376] [ohm:1672835:0]        ib_iface.c:1059 UCX  ERROR ibv_create_cq(cqe=256) failed: Connection timed out
[1741420458.634924] [ohm:1672845:0]        ib_iface.c:1059 UCX  ERROR ibv_create_cq(cqe=256) failed: Connection timed out
[1741420458.635368] [ohm:1672796:0]        ib_iface.c:1059 UCX  ERROR ibv_create_cq(cqe=256) failed: Connection timed out
[1741420458.653900] [ohm:1672821:0]        ib_iface.c:1059 UCX  ERROR ibv_create_cq(cqe=256) failed: Connection timed out
[1741420458.656830] [ohm:1672743:0]        ib_iface.c:1059 UCX  ERROR ibv_create_cq(cqe=256) failed: Connection timed out
[1741420458.657481] [ohm:1672791:0]        ib_iface.c:1059 UCX  ERROR ibv_create_cq(cqe=256) failed: Connection timed out
[1741420458.662539] [ohm:1672770:0]        ib_iface.c:1059 UCX  ERROR ibv_create_cq(cqe=256) failed: Connection timed out
[1741420458.663014] [ohm:1672851:0]        ib_iface.c:1059 UCX  ERROR ibv_create_cq(cqe=256) failed: Connection timed out
[1741420458.663696] [ohm:1672840:0]        ib_iface.c:1059 UCX  ERROR ibv_create_cq(cqe=256) failed: Connection timed out
[1741420458.671603] [ohm:1672711:0]        ib_iface.c:1059 UCX  ERROR ibv_create_cq(cqe=256) failed: Connection timed out
[1741420458.686841] [ohm:1672713:0]        ib_iface.c:1059 UCX  ERROR ibv_create_cq(cqe=256) failed: Connection timed out
[1741420458.686934] [ohm:1672802:0]        ib_iface.c:1059 UCX  ERROR ibv_create_cq(cqe=256) failed: Connection timed out
[1741420458.688673] [ohm:1672747:0]        ib_iface.c:1059 UCX  ERROR ibv_create_cq(cqe=256) failed: Connection timed out
[1741420458.698420] [ohm:1672814:0]        ib_iface.c:1059 UCX  ERROR ibv_create_cq(cqe=256) failed: Connection timed out
[1741420458.718307] [ohm:1672824:0]        ib_iface.c:1059 UCX  ERROR ibv_create_cq(cqe=256) failed: Connection timed out
[1741420458.725717] [ohm:1672709:0]        ib_iface.c:1059 UCX  ERROR ibv_create_cq(cqe=256) failed: Connection timed out
[1741420458.746365] [ohm:1672804:0]        ib_iface.c:1059 UCX  ERROR ibv_create_cq(cqe=256) failed: Connection timed out
[1741420458.753659] [ohm:1672815:0]        ib_iface.c:1059 UCX  ERROR ibv_create_cq(cqe=256) failed: Connection timed out
[1741420458.781326] [ohm:1672783:0]        ib_iface.c:1059 UCX  ERROR ibv_create_cq(cqe=256) failed: Connection timed out
[1741420458.782228] [ohm:1672734:0]        ib_iface.c:1059 UCX  ERROR ibv_create_cq(cqe=256) failed: Connection timed out
[1741420458.783055] [ohm:1672767:0]        ib_iface.c:1059 UCX  ERROR ibv_create_cq(cqe=256) failed: Connection timed out
[1741420458.784614] [ohm:1672706:0]        ib_iface.c:1059 UCX  ERROR ibv_create_cq(cqe=256) failed: Connection timed out
[1741420458.788957] [ohm:1672790:0]        ib_iface.c:1059 UCX  ERROR ibv_create_cq(cqe=256) failed: Connection timed out
[1741420458.789381] [ohm:1672730:0]        ib_iface.c:1059 UCX  ERROR ibv_create_cq(cqe=256) failed: Connection timed out
[1741420458.797963] [ohm:1672724:0]        ib_iface.c:1059 UCX  ERROR ibv_create_cq(cqe=256) failed: Connection timed out
[1741420458.798567] [ohm:1672725:0]        ib_iface.c:1059 UCX  ERROR ibv_create_cq(cqe=256) failed: Connection timed out
[1741420458.804463] [ohm:1672717:0]        ib_iface.c:1059 UCX  ERROR ibv_create_cq(cqe=256) failed: Connection timed out
[1741420458.813073] [ohm:1672772:0]        ib_iface.c:1059 UCX  ERROR ibv_create_cq(cqe=256) failed: Connection timed out
[1741420458.817560] [ohm:1672750:0]        ib_iface.c:1059 UCX  ERROR ibv_create_cq(cqe=256) failed: Connection timed out
[1741420458.818440] [ohm:1672778:0]        ib_iface.c:1059 UCX  ERROR ibv_create_cq(cqe=256) failed: Connection timed out
[1741420458.820094] [ohm:1672719:0]        ib_iface.c:1059 UCX  ERROR ibv_create_cq(cqe=256) failed: Connection timed out
[1741420458.820243] [ohm:1672787:0]        ib_iface.c:1059 UCX  ERROR ibv_create_cq(cqe=256) failed: Connection timed out
[1741420458.821598] [ohm:1672728:0]        ib_iface.c:1059 UCX  ERROR ibv_create_cq(cqe=256) failed: Connection timed out
[1741420458.829755] [ohm:1672764:0]        ib_iface.c:1059 UCX  ERROR ibv_create_cq(cqe=256) failed: Connection timed out
[1741420458.834204] [ohm:1672716:0]        ib_iface.c:1059 UCX  ERROR ibv_create_cq(cqe=256) failed: Connection timed out
[1741420458.834759] [ohm:1672809:0]        ib_iface.c:1059 UCX  ERROR ibv_create_cq(cqe=256) failed: Connection timed out
[1741420458.836773] [ohm:1672723:0]        ib_iface.c:1059 UCX  ERROR ibv_create_cq(cqe=256) failed: Connection timed out
[1741420458.838231] [ohm:1672757:0]        ib_iface.c:1059 UCX  ERROR ibv_create_cq(cqe=256) failed: Connection timed out
[1741420458.842249] [ohm:1672817:0]        ib_iface.c:1059 UCX  ERROR ibv_create_cq(cqe=256) failed: Connection timed out
[1741420458.842444] [ohm:1672738:0]        ib_iface.c:1059 UCX  ERROR ibv_create_cq(cqe=256) failed: Connection timed out
[1741420458.845082] [ohm:1672780:0]        ib_iface.c:1059 UCX  ERROR ibv_create_cq(cqe=256) failed: Connection timed out
[1741420458.847840] [ohm:1672726:0]        ib_iface.c:1059 UCX  ERROR ibv_create_cq(cqe=256) failed: Connection timed out
[1741420458.848044] [ohm:1672714:0]        ib_iface.c:1059 UCX  ERROR ibv_create_cq(cqe=256) failed: Connection timed out
[1741420458.848049] [ohm:1672722:0]        ib_iface.c:1059 UCX  ERROR ibv_create_cq(cqe=256) failed: Connection timed out
[1741420458.850915] [ohm:1672718:0]        ib_iface.c:1059 UCX  ERROR ibv_create_cq(cqe=256) failed: Connection timed out
[1741420458.851114] [ohm:1672727:0]        ib_iface.c:1059 UCX  ERROR ibv_create_cq(cqe=256) failed: Connection timed out
[1741420458.853022] [ohm:1672729:0]        ib_iface.c:1059 UCX  ERROR ibv_create_cq(cqe=256) failed: Connection timed out
[1741420458.853973] [ohm:1672720:0]        ib_iface.c:1059 UCX  ERROR ibv_create_cq(cqe=256) failed: Connection timed out
[1741420458.859056] [ohm:1672721:0]        ib_iface.c:1059 UCX  ERROR ibv_create_cq(cqe=256) failed: Connection timed out

--------------------------------
SUGGESTED CITATIONS FOR THIS RUN
--------------------------------

Below you find a list of papers that are relevant to this ORCA run
We neither can nor want to force you to cite these papers, but we appreciate if you do
You receive ORCA, which is the product of decades of hard work by many enthusiastic individuals, for free
The only thing we kindly ask in return is that you cite our papers,
We deeply appreciate it, if you show your appreciation for ORCA by not just citing the generic ORCA reference.

Please note that relegating all ORCA citations to the supporting information does *not* help us.
SI sections are not indexed - citations you put there will not count into any citation statistics
But we need these citations in order to attract the funding resources that allow us to do what we are doing

Therefore, if you are a happy ORCA user, please consider citing a few of the papers listed below in the main body of your paper

In addition to the list printed below, the program has created the file orca.bibtex that contains the list in bibtex format
You can import this file easily into all common literature databanks and citation aid programs


List of essential papers. We consider these as the minimum necessary citations

  1. Neese,F.
     Software update: the ORCA program system, version 5.0
     WIRES Comput. Molec. Sci., 2022 12(1)e1606
     doi.org/10.1002/wcms.1606

List of papers to cite with high priority. The work reported in these papers was absolutely
necessary for this run to complete.
Our perspective: the developers of density functionals and basis sets usually get cited in chemistry papers
Good! But without the algorithms to do something with them, the functionals or basis sets would not do anything.
Hence, in our opinion, the algorithm design and method developments papers are equally worthy of getting cited

  1. Neese,F.; Olbrich,G.
     Efficient use of the resolution of the identity approximation in time-dependent density functional calculations with hybrid density functionals
     Chem. Phys. Lett., 2002 362 170-178
     doi.org/10.1016/s0009-2614(02)01053-9
  2. Neese,F.
     An improvement of the resolution of the identity approximation for the formation of the Coulomb matrix
     J. Comp. Chem., 2003 24(14)1740-1747
     doi.org/10.1002/jcc.10318
  3. Neese,F.; Wennmohs,F.; Hansen,A.; Becker,U.
     Efficient, approximate and parallel Hartree-Fock and hybrid DFT calculations. A 'chain-of-spheres' algorithm for the Hartree-Fock exchange
     Chem. Phys., 2009 356(1-3)98-109
     doi.org/10.1016/j.chemphys.2008.10.036
  4. Petrenko,T.; Kossmann,S.; Neese,F.
     Efficient time-dependent density functional theory approximations for hybrid density functionals: Analytical gradients and parallelization
     J. Chem. Phys., 2011 134 054116
     doi.org/10.1063/1.3533441
  5. Helmich-Paris,B.; de Souza,B.; Neese,F.; Izsák,R.
     An improved chain of spheres for exchange algorithm
     J. Chem. Phys., 2021 155 104109
     doi.org/doi: 10.1063/5.0058766.
  6. Neese,F.
     The SHARK Integral Generation and Digestion System
     J. Comp. Chem., 2022  1-16
     doi.org/10.1002/jcc.26942
  7. Lehtola,S.; Steigemann,C.; Oliveira,M.; Marques,M.
     Recent developments in Libxc - A comprehensive library of functionals for density functional theory
     Software X, 2018 7 
     doi.org/10.1016/j.softx.2017.11.002
  8. Grimme,S.; Antony,J.; Ehrlich,S.; Krieg,H.
     A consistent and accurate ab initio parametrization of density functional dispersion correction (DFT-D) for the 94 elements H-Pu
     J. Chem. Phys., 2010 132 154104-XXXX
     doi.org/10.1063/1.3382344
  9. Grimme,S.; Ehrlich,S.; Goerigk,L.
     Effect of the damping function in dispersion corrected density functional theory
     J. Comput. Chem., 2011 32(7)1456-1465
     doi.org/10.1002/jcc.21759

List of suggested additional citations. These are papers that are important in the 'surrounding' of 
of this run, or papers that preceded the highly important papers. If you like your results we are grateful for a citation.

  1. Izsak,R.; Neese,F.
     An overlap fitted chain of spheres exchange method
     J. Chem. Phys., 2011 135 144105
     doi.org/10.1063/1.3646921
  2. Izsak,R.; Hansen,A.; Neese,F.
     The resolution of identity and chain of spheres approximations for the LPNO-CCSD singles Fock term
     Molec. Phys., 2012 110 2413-2417
     doi.org/10.1080/00268976.2012.687466
  3. Neese,F.
     The ORCA program system
     WIRES Comput. Molec. Sci., 2012 2(1)73-78
     doi.org/10.1002/wcms.81
  4. Izsak,R.; Neese,F.; Klopper,W.
     Robust fitting techniques in the chain of spheres approximation to the Fock exchange: The role of the complementary space
     J. Chem. Phys., 2013 139 
     doi.org/10.1063/1.4819264
  5. Neese,F.
     Software update: the ORCA program system, version 4.0
     WIRES Comput. Molec. Sci., 2018 8(1)1-6
     doi.org/10.1002/wcms.1327
  6. Neese,F.; Wennmohs,F.; Becker,U.; Riplinger,C.
     The ORCA quantum chemistry program package
     J. Chem. Phys., 2020 152 Art. No. L224108
     doi.org/10.1063/5.0004608

List of optional additional citations

  1. Neese,F.
     Approximate second-order SCF convergence for spin unrestricted wavefunctions
     Chem. Phys. Lett., 2000 325(1-3)93-98
     doi.org/10.1016/s0009-2614(00)00662-x

Timings for individual modules:

Sum of individual times          ...      304.081 sec (=   5.068 min)
Startup calculation              ...        6.380 sec (=   0.106 min)   2.1 %
SCF iterations                   ...      131.341 sec (=   2.189 min)  43.2 %
Property integrals               ...        4.299 sec (=   0.072 min)   1.4 %
Property calculations            ...        2.887 sec (=   0.048 min)   0.9 %
CIS module                       ...      159.174 sec (=   2.653 min)  52.3 %
                             ****ORCA TERMINATED NORMALLY****
TOTAL RUN TIME: 0 days 0 hours 5 minutes 6 seconds 283 msec
