
                                 *****************
                                 * O   R   C   A *
                                 *****************

                                            #,                                       
                                            ###                                      
                                            ####                                     
                                            #####                                    
                                            ######                                   
                                           ########,                                 
                                     ,,################,,,,,                         
                               ,,#################################,,                 
                          ,,##########################################,,             
                       ,#########################################, ''#####,          
                    ,#############################################,,   '####,        
                  ,##################################################,,,,####,       
                ,###########''''           ''''###############################       
              ,#####''   ,,,,##########,,,,          '''####'''          '####       
            ,##' ,,,,###########################,,,                        '##       
           ' ,,###''''                  '''############,,,                           
         ,,##''                                '''############,,,,        ,,,,,,###''
      ,#''                                            '''#######################'''  
     '                                                          ''''####''''         
             ,#######,   #######,   ,#######,      ##                                
            ,#'     '#,  ##    ##  ,#'     '#,    #''#        ,####,   ,####,        
            ##       ##  ##   ,#'  ##            #'  '#       #'       #'  '#        
            ##       ##  #######   ##           ,######,      #####,   #    #        
            '#,     ,#'  ##    ##  '#,     ,#' ,#      #,     #,   #   #,  ,#        
             '#######'   ##     ##  '#######'  #'      '#     '####' # '####'        



                #########################################################
                #                        -***-                          #
                #          Department of theory and spectroscopy        #
                #                                                       #
                #                      Frank Neese                      #
                #                                                       #
                #     Directorship, Architecture, Infrastructure        #
                #                    SHARK, DRIVERS                     #
                #        Core code/Algorithms in most modules           #
                #                                                       #
                #        Max Planck Institute fuer Kohlenforschung      #
                #                Kaiser Wilhelm Platz 1                 #
                #                 D-45470 Muelheim/Ruhr                 #
                #                      Germany                          #
                #                                                       #
                #                  All rights reserved                  #
                #                        -***-                          #
                #########################################################


                         Program Version 6.0.0  -   RELEASE  -


 With contributions from (in alphabetic order):
   Daniel Aravena         : Magnetic Suceptibility
   Michael Atanasov       : Ab Initio Ligand Field Theory (pilot matlab implementation)
   Alexander A. Auer      : GIAO ZORA, VPT2 properties, NMR spectrum
   Ute Becker             : All parallelization in ORCA, NUMFREQ, NUMCALC
   Giovanni Bistoni       : ED, misc. LED, open-shell LED, HFLD
   Martin Brehm           : Molecular dynamics
   Dmytro Bykov           : pre 5.0 version of the SCF Hessian
   Marcos Casanova-Páez   : Triplet and SCS-CIS(D). UHF-(DLPNO)-IP/EA/STEOM-CCSD. UHF-CVS-IP/STEOM-CCSD
   Vijay G. Chilkuri      : MRCI spin determinant printing, contributions to CSF-ICE
   Pauline Colinet        : FMM embedding
   Dipayan Datta          : RHF DLPNO-CCSD density
   Achintya Kumar Dutta   : EOM-CC, STEOM-CC
   Nicolas Foglia         : Exact transition moments, OPA infrastructure, MCD improvements
   Dmitry Ganyushin       : Spin-Orbit,Spin-Spin,Magnetic field MRCI
   Miquel Garcia          : C-PCM and meta-GGA Hessian, CCSD/C-PCM, Gaussian charge scheme
   Tiago L. C. Gouveia    : GS-ROHF, GS-ROCIS
   Yang Guo               : DLPNO-NEVPT2, F12-NEVPT2, CIM, IAO-localization
   Andreas Hansen         : Spin unrestricted coupled pair/coupled cluster methods
   Ingolf Harden          : AUTO-CI MPn and infrastructure 
   Benjamin Helmich-Paris : MC-RPA, TRAH-(SCF,CASSCF), AVAS, COSX integrals, SCF dyn. polar.
   Lee Huntington         : MR-EOM, pCC
   Robert Izsak           : Overlap fitted RIJCOSX, COSX-SCS-MP3, EOM
   Riya Kayal             : Wick's Theorem for AUTO-CI, AUTO-CI UHF-CCSDT
   Emily Kempfer          : AUTO-CI, RHF CISDT and CCSDT
   Christian Kollmar      : KDIIS, OOCD, Brueckner-CCSD(T), CCSD density, CASPT2, CASPT2-K, improved NEVPT2
   Axel Koslowski         : Symmetry handling
   Simone Kossmann        : Meta GGA functionals, TD-DFT gradient, OOMP2, (MP2 Hessian; deprecated post 5.0)
   Lucas Lang             : DCDCAS
   Marvin Lechner         : AUTO-CI (C++ implementation), FIC-MRCC
   Spencer Leger          : CASSCF response
   Dagmar Lenk            : GEPOL surface, SMD, ORCA-2-JSON
   Dimitrios Liakos       : Extrapolation schemes; Compound Job, initial MDCI parallelization
   Dimitrios Manganas     : Further ROCIS development; embedding schemes. LFT, Crystal Embedding
   Dimitrios Pantazis     : SARC Basis sets
   Anastasios Papadopoulos: AUTO-CI, single reference methods and gradients
   Taras Petrenko         : pre 6.0 DFT Hessian and TD-DFT gradient, (ASA, deprecated), ECA, 1-Electron XAS/XES, NRVS
   Peter Pinski           : DLPNO-MP2, DLPNO-MP2 Gradient
   Christoph Reimann      : Effective Core Potentials
   Marius Retegan         : Local ZFS, SOC
   Christoph Riplinger    : Optimizer, TS searches, QM/MM, DLPNO-CCSD(T), (RO)-DLPNO pert. Triples
   Michael Roemelt        : Original ROCIS implementation
   Masaaki Saitow         : Open-shell DLPNO-CCSD energy and density
   Barbara Sandhoefer     : DKH picture change effects
   Kantharuban Sivalingam : CASSCF convergence/infrastructure, NEVPT2 and variants, FIC-MRCI
   Bernardo de Souza      : ESD, SOC TD-DFT
   Georgi Stoychev        : AutoAux, RI-MP2 NMR, DLPNO-MP2 response, X2C
   Van Anh Tran           : RI-MP2 g-tensors
   Willem Van den Heuvel  : Paramagnetic NMR
   Zikuan Wang            : NOTCH, Electric field optimization 
   Frank Wennmohs         : Technical directorship and infrastructure
   Hang Xu                : AUTO-CI-Response properties 


 We gratefully acknowledge several colleagues who have allowed us to
 interface, adapt or use parts of their codes:
   Stefan Grimme, W. Hujo, H. Kruse, P. Pracht,  : VdW corrections, initial TS optimization,
                  C. Bannwarth, S. Ehlert,         DFT functionals, gCP, sTDA/sTD-DF
                  L. Wittmann, M. Mueller
   Ed Valeev, F. Pavosevic, A. Kumar             : LibInt (2-el integral package), F12 methods
   Garnet Chan, S. Sharma, J. Yang, R. Olivares  : DMRG
   Ulf Ekstrom                                   : XCFun DFT Library
   Mihaly Kallay                                 : mrcc  (arbitrary order and MRCC methods)
   Frank Weinhold                                : gennbo (NPA and NBO analysis)
   Simon Mueller                                 : openCOSMO-RS
   Christopher J. Cramer and Donald G. Truhlar   : smd solvation model
   Lars Goerigk                                  : TD-DFT with DH, B97 family of functionals
   V. Asgeirsson, H. Jonsson                     : NEB implementation
   FAccTs GmbH                                   : IRC, NEB, NEB-TS, DLPNO-Multilevel, CI-OPT
                                                   MM, QMMM, 2- and 3-layer-ONIOM, Crystal-QMMM,
                                                   LR-CPCM, SF, NACMEs, symmetry and pop. for TD-DFT,
                                                   nearIR, NL-DFT gradient (VV10), updates on ESD,
                                                   ML-optimized integration grids, MBIS, APM,
                                                   GOAT, DOCKER, SOLVATOR, interface openCOSMO-RS
   S Lehtola, MJT Oliveira, MAL Marques          : LibXC Library
   Liviu Ungur et al                             : ANISO software


 Your calculation uses the libint2 library for the computation of 2-el integrals
 For citations please refer to: http://libint.valeyev.net

 Your ORCA version has been built with support for libXC version: 6.2.2
 For citations please refer to: https://libxc.gitlab.io

 This ORCA versions uses:
   CBLAS   interface :  Fast vector & matrix operations
   LAPACKE interface :  Fast linear algebra routines
   SCALAPACK package :  Parallel linear algebra routines
   Shared memory     :  Shared parallel matrices
   BLAS/LAPACK       :  OpenBLAS 0.3.27  USE64BITINT DYNAMIC_ARCH NO_AFFINITY Zen SINGLE_THREADED
        Core in use  :  Zen
   Copyright (c) 2011-2014, The OpenBLAS Project


Your calculation utilizes the atom-pairwise dispersion correction
with the Becke-Johnson damping scheme (D3BJ)


Warning: RI is on but no J-basis has been assigned. Assigning Def2/J (nothing to worry about!)
================================================================================

----- Orbital basis set information -----
Your calculation utilizes the basis: def2-TZVPPD
   F. Weigend and R. Ahlrichs, Phys. Chem. Chem. Phys. 7, 3297 (2005).
   D. Rappoport and F. Furche, J. Chem. Phys. 133, 134105 (2010)
   D. Rappoport, J. Chem. Phys. 155, 124102 (2021).

----- AuxJ basis set information -----
Your calculation utilizes the auxiliary basis: def2/J
   F. Weigend, Phys. Chem. Chem. Phys. 8, 1057 (2006).

================================================================================
                                        WARNINGS
                       Please study these warnings very carefully!
================================================================================

Using LibXC functional ID 531 : wB97M-V exchange-correlation functional
[ 1]  N. Mardirossian and M. Head-Gordon.,  J. Chem. Phys. 144, 214110 (2016)
Using LibXC functional ID 531 : wB97M-V exchange-correlation functional
[ 1]  N. Mardirossian and M. Head-Gordon.,  J. Chem. Phys. 144, 214110 (2016)

WARNING: B97M-V or wB97M-V functional requested.
  ===> : libXC variant has now been activated.
         Any manually given DFX/HFX/RangeSep scaling parameters are IGNORED!

Your calculation utilizes LibXC
 by S Lehtola, C Steigemann, MJT Oliveira & MAL Marques
Please cite in your paper:
 S Lehtola, C Steigemann, MJT Oliveira & MAL Marques, SoftwareX, 7, (2018), 1.
   

INFO   : Checking CIS options ...

WARNING: CIS/ROCIS methods need fully converged wavefunctions
  ===> : Setting SCFConvForced true
         You can overwrite this default with %scf ConvForced false 


================================================================================
                                       INPUT FILE
================================================================================
NAME = orca.inp
|  1> ! ENGRAD wB97M-D3BJ def2-TZVPPD 
|  2> %pal nprocs 8 end%pal nprocs 16 end 
|  3> %tddft nroots 4 Iroot 1 end 
|  4> *xyz 0 1 
|  5> O   0.08703698023762 0.82119148164923 -4.900663452e-05
|  6> C   0.72545925786061 -0.41335718904236 7.386647772e-05
|  7> C   -0.71014753615707 -0.46151098505285 -0.00010047772158
|  8> H   1.26312971663317 -0.66570195551132 0.90947203131602
|  9> H   1.26300139964005 -0.66599183092023 -0.90934859935627
| 10> H   -1.24561678596121 -0.62973397057627 -0.92197354424539
| 11> H   -1.24540305615724 -0.62971940529628 0.92192573016402
| 12> *
| 13> 
| 14>                          ****END OF INPUT****
================================================================================

                     *******************************
                     * Energy+Gradient Calculation *
                     *******************************

---------------------------------
CARTESIAN COORDINATES (ANGSTROEM)
---------------------------------
  O      0.087037    0.821191   -0.000049
  C      0.725459   -0.413357    0.000074
  C     -0.710148   -0.461511   -0.000100
  H      1.263130   -0.665702    0.909472
  H      1.263001   -0.665992   -0.909349
  H     -1.245617   -0.629734   -0.921974
  H     -1.245403   -0.629719    0.921926

----------------------------
CARTESIAN COORDINATES (A.U.)
----------------------------
  NO LB      ZA    FRAG     MASS         X           Y           Z
   0 O     8.0000    0    15.999    0.164476    1.551827   -0.000093
   1 C     6.0000    0    12.011    1.370919   -0.781132    0.000140
   2 C     6.0000    0    12.011   -1.341984   -0.872129   -0.000190
   3 H     1.0000    0     1.008    2.386969   -1.257994    1.718653
   4 H     1.0000    0     1.008    2.386727   -1.258542   -1.718420
   5 H     1.0000    0     1.008   -2.353875   -1.190025   -1.742278
   6 H     1.0000    0     1.008   -2.353471   -1.189997    1.742187

--------------------------------
INTERNAL COORDINATES (ANGSTROEM)
--------------------------------
 O      0   0   0     0.000000000000     0.00000000     0.00000000
 C      1   0   0     1.389853747691     0.00000000     0.00000000
 C      2   1   0     1.436414176168    64.57627579     0.00000000
 H      2   1   3     1.086173294467   115.71024119   248.30559405
 H      2   1   3     1.086197513268   115.71183590   111.66804894
 H      3   2   1     1.079294325532   120.07803003    99.25082726
 H      3   2   1     1.079316854478   120.05047783   260.74781905

---------------------------
INTERNAL COORDINATES (A.U.)
---------------------------
 O      0   0   0     0.000000000000     0.00000000     0.00000000
 C      1   0   0     2.626442949339     0.00000000     0.00000000
 C      2   1   0     2.714429407839    64.57627579     0.00000000
 H      2   1   3     2.052570060521   115.71024119   248.30559405
 H      2   1   3     2.052615827422   115.71183590   111.66804894
 H      3   2   1     2.039570693151   120.07803003    99.25082726
 H      3   2   1     2.039613266688   120.05047783   260.74781905

---------------------
BASIS SET INFORMATION
---------------------
There are 3 groups of distinct atoms

 Group   1 Type O   : 12s7p3d1f contracted to 6s4p3d1f pattern {621111/4111/111/1}
 Group   2 Type C   : 12s6p3d1f contracted to 6s3p3d1f pattern {621111/411/111/1}
 Group   3 Type H   : 5s3p1d contracted to 3s3p1d pattern {311/111/1}

Atom   0O    basis set group =>   1
Atom   1C    basis set group =>   2
Atom   2C    basis set group =>   2
Atom   3H    basis set group =>   3
Atom   4H    basis set group =>   3
Atom   5H    basis set group =>   3
Atom   6H    basis set group =>   3
---------------------------------
AUXILIARY/J BASIS SET INFORMATION
---------------------------------
There are 3 groups of distinct atoms

 Group   1 Type O   : 12s5p4d2f1g contracted to 6s4p3d1f1g pattern {711111/2111/211/2/1}
 Group   2 Type C   : 12s5p4d2f1g contracted to 6s4p3d1f1g pattern {711111/2111/211/2/1}
 Group   3 Type H   : 5s2p1d contracted to 3s1p1d pattern {311/2/1}

Atom   0O    basis set group =>   1
Atom   1C    basis set group =>   2
Atom   2C    basis set group =>   2
Atom   3H    basis set group =>   3
Atom   4H    basis set group =>   3
Atom   5H    basis set group =>   3
Atom   6H    basis set group =>   3
[1741190938.655950] [ohm:187509:0]        ib_iface.c:1059 UCX  ERROR ibv_create_cq(cqe=256) failed: Connection timed out
[1741190938.660652] [ohm:187511:0]        ib_iface.c:1059 UCX  ERROR ibv_create_cq(cqe=256) failed: Connection timed out
[1741190938.665254] [ohm:187507:0]        ib_iface.c:1059 UCX  ERROR ibv_create_cq(cqe=256) failed: Connection timed out
[1741190938.677165] [ohm:187521:0]        ib_iface.c:1059 UCX  ERROR ibv_create_cq(cqe=256) failed: Connection timed out
[1741190938.678906] [ohm:187516:0]        ib_iface.c:1059 UCX  ERROR ibv_create_cq(cqe=256) failed: Connection timed out
[1741190938.691054] [ohm:187513:0]        ib_iface.c:1059 UCX  ERROR ibv_create_cq(cqe=256) failed: Connection timed out
[1741190938.708137] [ohm:187533:0]        ib_iface.c:1059 UCX  ERROR ibv_create_cq(cqe=256) failed: Connection timed out
[1741190938.711464] [ohm:187508:0]        ib_iface.c:1059 UCX  ERROR ibv_create_cq(cqe=256) failed: Connection timed out
[1741190938.719823] [ohm:187518:0]        ib_iface.c:1059 UCX  ERROR ibv_create_cq(cqe=256) failed: Connection timed out
[1741190938.720672] [ohm:187527:0]        ib_iface.c:1059 UCX  ERROR ibv_create_cq(cqe=256) failed: Connection timed out
[1741190938.725275] [ohm:187524:0]        ib_iface.c:1059 UCX  ERROR ibv_create_cq(cqe=256) failed: Connection timed out
[1741190938.737336] [ohm:187506:0]        ib_iface.c:1059 UCX  ERROR ibv_create_cq(cqe=256) failed: Connection timed out
[1741190938.737976] [ohm:187531:0]        ib_iface.c:1059 UCX  ERROR ibv_create_cq(cqe=256) failed: Connection timed out
[1741190938.740765] [ohm:187514:0]        ib_iface.c:1059 UCX  ERROR ibv_create_cq(cqe=256) failed: Connection timed out
[1741190938.745608] [ohm:187510:0]        ib_iface.c:1059 UCX  ERROR ibv_create_cq(cqe=256) failed: Connection timed out
[1741190938.751292] [ohm:187512:0]        ib_iface.c:1059 UCX  ERROR ibv_create_cq(cqe=256) failed: Connection timed out


           ************************************************************
           *        Program running with 16 parallel MPI-processes    *
           *              working on a common directory               *
           ************************************************************
------------------------------------------------------------------------------
                             ORCA STARTUP CALCULATIONS
                           -- RI-GTO INTEGRALS CHOSEN --
------------------------------------------------------------------------------
------------------------------------------------------------------------------
                   ___                                                        
                  /   \      - P O W E R E D   B Y -                         
                 /     \                                                     
                 |  |  |   _    _      __       _____    __    __             
                 |  |  |  | |  | |    /  \     |  _  \  |  |  /  |          
                  \  \/   | |  | |   /    \    | | | |  |  | /  /          
                 / \  \   | |__| |  /  /\  \   | |_| |  |  |/  /          
                |  |  |   |  __  | /  /__\  \  |    /   |      \           
                |  |  |   | |  | | |   __   |  |    \   |  |\   \          
                \     /   | |  | | |  |  |  |  | |\  \  |  | \   \       
                 \___/    |_|  |_| |__|  |__|  |_| \__\ |__|  \__/        
                                                                              
                      - O R C A' S   B I G   F R I E N D -                    
                                      &                                       
                       - I N T E G R A L  F E E D E R -                       
                                                                              
 v1 FN, 2020, v2 2021, v3 2022-2024                                           
------------------------------------------------------------------------------


----------------------
SHARK INTEGRAL PACKAGE
----------------------

Number of atoms                             ...      7
Number of basis functions                   ...    182
Number of shells                            ...     68
Maximum angular momentum                    ...      3
Integral batch strategy                     ... SHARK/LIBINT Hybrid
RI-J (if used) integral strategy            ... SPLIT-RIJ (Revised 2003 algorithm where possible)
Printlevel                                  ...      1
Contraction scheme used                     ... SEGMENTED contraction
Prescreening option                         ... SCHWARTZ
   Thresh                                   ... 2.500e-11
   Tcut                                     ... 2.500e-12
   Tpresel                                  ... 2.500e-12 
Coulomb Range Separation                    ... NOT USED
Exchange Range Separation                   ... Long Range
   Mu parameter                             ... 3.000e-01
   Scaling (regular/separated)              ... 1.500e-01 8.500e-01
Multipole approximations                    ... NOT USED
Finite Nucleus Model                        ... NOT USED
CABS basis                                  ... NOT available
Auxiliary Coulomb fitting basis             ... AVAILABLE
   # of basis functions in Aux-J            ...    191
   # of shells in Aux-J                     ...     65
   Maximum angular momentum in Aux-J        ...      4
Auxiliary J/K fitting basis                 ... NOT available
Auxiliary Correlation fitting basis         ... NOT available
Auxiliary 'external' fitting basis          ... NOT available

Checking pre-screening integrals            ... done (  0.0 sec) Dimension = 68
Check shell pair data                       ... done (  0.0 sec)
Shell pair information
Shell pair cut-off parameter TPreSel        ...   2.5e-12
Total number of shell pairs                 ...      2346
Shell pairs after pre-screening             ...      2341
Total number of primitive shell pairs       ...      5434
Primitive shell pairs kept                  ...      4919
          la=0 lb=0:    460 shell pairs
          la=1 lb=0:    660 shell pairs
          la=1 lb=1:    253 shell pairs
          la=2 lb=0:    390 shell pairs
          la=2 lb=1:    286 shell pairs
          la=2 lb=2:     91 shell pairs
          la=3 lb=0:     90 shell pairs
          la=3 lb=1:     66 shell pairs
          la=3 lb=2:     39 shell pairs
          la=3 lb=3:      6 shell pairs

Calculating one electron integrals          ... done (  0.0 sec)
Calculating RI/J V-Matrix + Cholesky decomp.... done (  0.0 sec)
Calculating Nuclear repulsion               ... done (  0.0 sec) ENN=     75.160496912307 Eh

Diagonalization of the overlap matrix:
Smallest eigenvalue                        ... 9.289e-06
Time for diagonalization                   ...    0.004 sec
Threshold for overlap eigenvalues          ... 1.000e-07
Number of eigenvalues below threshold      ... 0
Time for construction of square roots      ...    0.005 sec
Total time needed                          ...    0.012 sec

-------------------
DFT GRID GENERATION
-------------------

General Integration Accuracy     IntAcc      ... 4.388
Radial Grid Type                 RadialGrid  ... OptM3 with GC (2021)
Angular Grid (max. ang.)         AngularGrid ... 4 (Lebedev-302)
Angular grid pruning method      GridPruning ... 4 (adaptive)
Weight generation scheme         WeightScheme... mBecke (2022)
Basis function cutoff            BFCut       ... 1.0000e-11
Integration weight cutoff        WCut        ... 1.0000e-14
Partially contracted basis set               ... off
Rotationally invariant grid construction     ... off
Angular grids for H and He will be reduced by one unit
Diffuse basis detected: some atoms will have their outermost
                        angular grid increased by 1.

Total number of grid points                  ...    33067
Total number of batches                      ...      521
Average number of points per batch           ...       63
Average number of grid points per atom       ...     4724

--------------------
COSX GRID GENERATION
--------------------

GRIDX 1
-------
General Integration Accuracy     IntAcc      ... 3.816
Radial Grid Type                 RadialGrid  ... OptM3 with GC (2021)
Angular Grid (max. ang.)         AngularGrid ... 1 (Lebedev-50)
Angular grid pruning method      GridPruning ... 4 (adaptive)
Weight generation scheme         WeightScheme... mBecke (2022)
Basis function cutoff            BFCut       ... 1.0000e-11
Integration weight cutoff        WCut        ... 1.0000e-14
Partially contracted basis set               ... on
Rotationally invariant grid construction     ... off
Angular grids for H and He will be reduced by one unit
Diffuse basis detected: some atoms will have their outermost
                        angular grid increased by 1.

Total number of grid points                  ...     4165
Total number of batches                      ...       37
Average number of points per batch           ...      112
Average number of grid points per atom       ...      595
UseSFitting                                  ... on

GRIDX 2
-------
General Integration Accuracy     IntAcc      ... 4.020
Radial Grid Type                 RadialGrid  ... OptM3 with GC (2021)
Angular Grid (max. ang.)         AngularGrid ... 2 (Lebedev-110)
Angular grid pruning method      GridPruning ... 4 (adaptive)
Weight generation scheme         WeightScheme... mBecke (2022)
Basis function cutoff            BFCut       ... 1.0000e-11
Integration weight cutoff        WCut        ... 1.0000e-14
Partially contracted basis set               ... on
Rotationally invariant grid construction     ... off
Angular grids for H and He will be reduced by one unit
Diffuse basis detected: some atoms will have their outermost
                        angular grid increased by 1.

Total number of grid points                  ...    10260
Total number of batches                      ...       84
Average number of points per batch           ...      122
Average number of grid points per atom       ...     1466
UseSFitting                                  ... on

GRIDX 3
-------
General Integration Accuracy     IntAcc      ... 4.338
Radial Grid Type                 RadialGrid  ... OptM3 with GC (2021)
Angular Grid (max. ang.)         AngularGrid ... 3 (Lebedev-194)
Angular grid pruning method      GridPruning ... 4 (adaptive)
Weight generation scheme         WeightScheme... mBecke (2022)
Basis function cutoff            BFCut       ... 1.0000e-11
Integration weight cutoff        WCut        ... 1.0000e-14
Partially contracted basis set               ... on
Rotationally invariant grid construction     ... off
Angular grids for H and He will be reduced by one unit
Diffuse basis detected: some atoms will have their outermost
                        angular grid increased by 1.

Total number of grid points                  ...    23016
Total number of batches                      ...      182
Average number of points per batch           ...      126
Average number of grid points per atom       ...     3288
UseSFitting                                  ... on
Initializing property integral containers    ... done (  0.0 sec)

SHARK setup successfully completed in   0.5 seconds

Maximum memory used throughout the entire STARTUP-calculation: 13.8 MB
[1741190940.844445] [ohm:187593:0]        ib_iface.c:1059 UCX  ERROR ibv_create_cq(cqe=256) failed: Connection timed out
[1741190940.868598] [ohm:187613:0]        ib_iface.c:1059 UCX  ERROR ibv_create_cq(cqe=256) failed: Connection timed out
[1741190940.868625] [ohm:187591:0]        ib_iface.c:1059 UCX  ERROR ibv_create_cq(cqe=256) failed: Connection timed out
[1741190940.878484] [ohm:187599:0]        ib_iface.c:1059 UCX  ERROR ibv_create_cq(cqe=256) failed: Connection timed out
[1741190940.879321] [ohm:187595:0]        ib_iface.c:1059 UCX  ERROR ibv_create_cq(cqe=256) failed: Connection timed out
[1741190940.888220] [ohm:187603:0]        ib_iface.c:1059 UCX  ERROR ibv_create_cq(cqe=256) failed: Connection timed out
[1741190940.900141] [ohm:187589:0]        ib_iface.c:1059 UCX  ERROR ibv_create_cq(cqe=256) failed: Connection timed out
[1741190940.919290] [ohm:187616:0]        ib_iface.c:1059 UCX  ERROR ibv_create_cq(cqe=256) failed: Connection timed out
[1741190940.926347] [ohm:187602:0]        ib_iface.c:1059 UCX  ERROR ibv_create_cq(cqe=256) failed: Connection timed out
[1741190940.930866] [ohm:187610:0]        ib_iface.c:1059 UCX  ERROR ibv_create_cq(cqe=256) failed: Connection timed out
[1741190940.932116] [ohm:187614:0]        ib_iface.c:1059 UCX  ERROR ibv_create_cq(cqe=256) failed: Connection timed out
[1741190940.954326] [ohm:187597:0]        ib_iface.c:1059 UCX  ERROR ibv_create_cq(cqe=256) failed: Connection timed out
[1741190940.958800] [ohm:187594:0]        ib_iface.c:1059 UCX  ERROR ibv_create_cq(cqe=256) failed: Connection timed out
[1741190940.982675] [ohm:187619:0]        ib_iface.c:1059 UCX  ERROR ibv_create_cq(cqe=256) failed: Connection timed out
[1741190940.984782] [ohm:187592:0]        ib_iface.c:1059 UCX  ERROR ibv_create_cq(cqe=256) failed: Connection timed out
[1741190941.003868] [ohm:187590:0]        ib_iface.c:1059 UCX  ERROR ibv_create_cq(cqe=256) failed: Connection timed out


           ************************************************************
           *        Program running with 16 parallel MPI-processes    *
           *              working on a common directory               *
           ************************************************************
-------------------------------------------------------------------------------
                                 ORCA GUESS
                   Start orbitals & Density for SCF / CASSCF
-------------------------------------------------------------------------------

------------
SCF SETTINGS
------------
Hamiltonian:
 Density Functional     Method          .... DFT(GTOs)
  Functional kind                       .... Exchange-Correlation
  Functional name                       .... wB97M-V exchange-correlation functional
  Functional family                     .... Hybrid MGGA
  Functional refs                              
    [ 0] N. Mardirossian and M. Head-Gordon.,  J. Chem. Phys. 144, 214110 (2016), doi: 10.1063/1.4952647
  Fraction of HF Exchange (short range) .... 0.1500
  Fraction of HF Exchange (long range)  .... 1.0000
  Range separation parameter mu         .... 0.3000
  Functional external parameters        .... 17
    Parameter  0 _cx00      =  8.500000e-01 : u^00 coefficient for exchange
    Parameter  1 _cx01      =  1.007000e+00 : u^01 coefficient for exchange
    Parameter  2 _cx10      =  2.590000e-01 : u^10 coefficient for exchange
    Parameter  3 _css00     =  4.430000e-01 : u^00 coefficient for same-spin correlation
    Parameter  4 _css04     = -1.437000e+00 : u^04 coefficient for same-spin correlation
    Parameter  5 _css10     = -4.535000e+00 : u^10 coefficient for same-spin correlation
    Parameter  6 _css20     = -3.390000e+00 : u^20 coefficient for same-spin correlation
    Parameter  7 _css43     =  4.278000e+00 : u^43 coefficient for same-spin correlation
    Parameter  8 _cos00     =  1.000000e+00 : u^00 coefficient for opposite-spin correlation
    Parameter  9 _cos10     =  1.358000e+00 : u^10 coefficient for opposite-spin correlation
    Parameter 10 _cos20     =  2.924000e+00 : u^20 coefficient for opposite-spin correlation
    Parameter 11 _cos21     = -8.812000e+00 : u^21 coefficient for opposite-spin correlation
    Parameter 12 _cos60     = -1.390000e+00 : u^60 coefficient for opposite-spin correlation
    Parameter 13 _cos61     =  9.142000e+00 : u^61 coefficient for opposite-spin correlation
    Parameter 14 _alpha     =  1.000000e+00 : fraction of HF exchange
    Parameter 15 _beta      = -8.500000e-01 : fraction of short-range exchange
    Parameter 16 _omega     =  3.000000e-01 : range-separation constant
 Long-range corrected/Screened/Range-Separated Hybrid DFT is turned on
   Amount of maximum screened exact exchange              ....  0.850000
   Range separation parameter mu (erf(mu*r12)/r12)        ....  0.300000
 RI-approximation to the Coulomb term is turned on
   Number of AuxJ basis functions       .... 191
   RIJ-COSX (HFX calculated with COS-X)).... on


General Settings:
 Integral files         IntName         .... orca
 Hartree-Fock type      HFTyp           .... RHF
 Total Charge           Charge          ....    0
 Multiplicity           Mult            ....    1
 Number of Electrons    NEL             ....   24
 Basis Dimension        Dim             ....  182
 Nuclear Repulsion      ENuc            ....     75.1604969123 Eh

Convergence Acceleration:
 AO-DIIS                CNVDIIS         .... on
   Start iteration      DIISMaxIt       ....    12
   Startup error        DIISStart       ....  0.200000
   # of expansion vecs  DIISMaxEq       ....     5
   Bias factor          DIISBfac        ....   1.050
   Max. coefficient     DIISMaxC        ....  10.000
 MO-DIIS                CNVKDIIS        .... off
 Trust-Rad. Augm. Hess. CNVTRAH         .... auto
   Auto Start mean grad. ratio tolernc. ....  1.125000
   Auto Start start iteration           ....    50
   Auto Start num. interpolation iter.  ....    10
   Max. Number of Micro iterations      ....    24
   Max. Number of Macro iterations      .... Maxiter - #DIIS iter
   Number of Davidson start vectors     ....     2
   Converg. threshold    (grad. norm)   ....   1.000e-05
   Grad. Scal. Fac. for Micro threshold ....   0.100
   Minimum threshold for Micro iter.    ....   1.000e-02
   NR start threshold (gradient norm)   ....   1.000e-04
   Initial trust radius                 ....   0.400
   Minimum AH scaling param. (alpha)    ....   1.000
   Maximum AH scaling param. (alpha)    .... 1000.000
   Quad. conv. algorithm                .... NR
   White noise on init. David. guess    .... on
   Maximum white noise                  ....   0.010
   Pseudo random numbers                .... off
   Inactive MOs                         .... canonical
   Orbital update algorithm             .... Taylor
   Preconditioner                       .... Diag
   Full preconditioner red. dimension   ....   250
 SOSCF                  CNVSOSCF        .... on
   Start iteration      SOSCFMaxIt      ....   150
   Startup grad/error   SOSCFStart      ....  0.003300
   Hessian update       SOSCFHessUp     .... L-BFGS
 Level Shifting         CNVShift        .... on
   Level shift para.    LevelShift      ....    0.2500
   Turn off err/grad.   ShiftErr        ....    0.0010
 Zerner damping         CNVZerner       .... off
 Static damping         CNVDamp         .... on
   Fraction old density DampFac         ....    0.7000
   Max. Damping (<1)    DampMax         ....    0.9800
   Min. Damping (>=0)   DampMin         ....    0.0000
   Turn off err/grad.   DampErr         ....    0.1000

SCF Procedure:
 Maximum # iterations   MaxIter         ....   125
 SCF integral mode      SCFMode         .... Direct
   Integral package                     .... SHARK and LIBINT hybrid scheme
 Reset frequency        DirectResetFreq ....    20
 Integral Threshold     Thresh          ....  2.500e-11 Eh
 Primitive CutOff       TCut            ....  2.500e-12 Eh

Convergence Tolerance:
 Convergence Check Mode ConvCheckMode   .... Total+1el-Energy
 Convergence forced     ConvForced      .... 1
 Energy Change          TolE            ....  1.000e-08 Eh
 1-El. energy change                    ....  1.000e-05 Eh
 Orbital Gradient       TolG            ....  1.000e-05
 Orbital Rotation angle TolX            ....  1.000e-05
 DIIS Error             TolErr          ....  5.000e-07

------------------------------
INITIAL GUESS: MODEL POTENTIAL
------------------------------
Loading Hartree-Fock densities                     ... done
Calculating cut-offs                               ... done
Initializing the effective Hamiltonian             ... done
Setting up the integral package (SHARK)            ... done
Starting the Coulomb interaction                   ... done (   0.2 sec)
Making the grid                                    ... done (   0.1 sec)
Mapping shells                                     ... done
Starting the XC term evaluation                    ... done (   0.0 sec)
  promolecular density results
     # of electrons  =     23.997139275
     EX              =    -19.543335259
     EC              =     -0.782242646
     EX+EC           =    -20.325577905
Transforming the Hamiltonian                       ... done (   0.0 sec)
Diagonalizing the Hamiltonian                      ... done (   0.0 sec)
Back transforming the eigenvectors                 ... done (   0.0 sec)
Now organizing SCF variables                       ... done
                      ------------------
                      INITIAL GUESS DONE (   0.3 sec)
                      ------------------
             **** ENERGY FILE WAS UPDATED (orca.en.tmp) ****
Finished Guess after   1.5 sec
Maximum memory used throughout the entire GUESS-calculation: 9.7 MB
[1741190942.604284] [ohm:187676:0]        ib_iface.c:1059 UCX  ERROR ibv_create_cq(cqe=256) failed: Connection timed out
[1741190942.604381] [ohm:187678:0]        ib_iface.c:1059 UCX  ERROR ibv_create_cq(cqe=256) failed: Connection timed out
[1741190942.609674] [ohm:187679:0]        ib_iface.c:1059 UCX  ERROR ibv_create_cq(cqe=256) failed: Connection timed out
[1741190942.616622] [ohm:187677:0]        ib_iface.c:1059 UCX  ERROR ibv_create_cq(cqe=256) failed: Connection timed out
[1741190942.618254] [ohm:187675:0]        ib_iface.c:1059 UCX  ERROR ibv_create_cq(cqe=256) failed: Connection timed out
[1741190942.626356] [ohm:187682:0]        ib_iface.c:1059 UCX  ERROR ibv_create_cq(cqe=256) failed: Connection timed out
[1741190942.635315] [ohm:187681:0]        ib_iface.c:1059 UCX  ERROR ibv_create_cq(cqe=256) failed: Connection timed out
[1741190942.640100] [ohm:187684:0]        ib_iface.c:1059 UCX  ERROR ibv_create_cq(cqe=256) failed: Connection timed out
[1741190942.640097] [ohm:187691:0]        ib_iface.c:1059 UCX  ERROR ibv_create_cq(cqe=256) failed: Connection timed out
[1741190942.641647] [ohm:187688:0]        ib_iface.c:1059 UCX  ERROR ibv_create_cq(cqe=256) failed: Connection timed out
[1741190942.649025] [ohm:187680:0]        ib_iface.c:1059 UCX  ERROR ibv_create_cq(cqe=256) failed: Connection timed out
[1741190942.650310] [ohm:187674:0]        ib_iface.c:1059 UCX  ERROR ibv_create_cq(cqe=256) failed: Connection timed out
[1741190942.653290] [ohm:187704:0]        ib_iface.c:1059 UCX  ERROR ibv_create_cq(cqe=256) failed: Connection timed out
[1741190942.659673] [ohm:187695:0]        ib_iface.c:1059 UCX  ERROR ibv_create_cq(cqe=256) failed: Connection timed out
[1741190942.664554] [ohm:187699:0]        ib_iface.c:1059 UCX  ERROR ibv_create_cq(cqe=256) failed: Connection timed out
[1741190942.668848] [ohm:187692:0]        ib_iface.c:1059 UCX  ERROR ibv_create_cq(cqe=256) failed: Connection timed out


           ************************************************************
           *        Program running with 16 parallel MPI-processes    *
           *              working on a common directory               *
           ************************************************************

-------------------------------------------------------------------------------------------
                                      ORCA LEAN-SCF
                              memory conserving SCF solver
-------------------------------------------------------------------------------------------

----------------------------------------D-I-I-S--------------------------------------------
Iteration    Energy (Eh)           Delta-E    RMSDP     MaxDP     DIISErr   Damp  Time(sec)
-------------------------------------------------------------------------------------------
               ***  Starting incremental Fock matrix formation  ***
    1    -153.8108580753111596     0.00e+00  1.59e-03  3.63e-02  1.78e-01  0.700   0.4
    2    -153.8390144049371884    -2.82e-02  1.41e-03  3.22e-02  8.88e-02  0.700   1.1
                               ***Turning on AO-DIIS***
    3    -153.8530988515511240    -1.41e-02  1.16e-03  2.87e-02  4.44e-02  0.700   1.4
    4    -153.8616145983981482    -8.52e-03  2.94e-03  7.89e-02  2.83e-02  0.000   0.3
    5    -153.8803932761975943    -1.88e-02  2.17e-04  8.77e-03  4.10e-03  0.000   0.2
                              *** Initializing SOSCF ***
---------------------------------------S-O-S-C-F--------------------------------------
Iteration    Energy (Eh)           Delta-E    RMSDP     MaxDP     MaxGrad    Time(sec)
--------------------------------------------------------------------------------------
    6    -153.8804334214813707    -4.01e-05  9.63e-05  3.79e-03  1.49e-03     0.2
               *** Restarting incremental Fock matrix formation ***
    7    -153.8804410543481254    -7.63e-06  7.49e-05  2.43e-03  1.54e-04     0.3
    8    -153.8804417286964963    -6.74e-07  4.32e-05  1.39e-03  1.10e-04     0.3
    9    -153.8804419784839297    -2.50e-07  1.71e-05  5.73e-04  3.38e-05     0.3
   10    -153.8804420140529032    -3.56e-08  1.97e-06  7.16e-05  4.78e-06     0.3
   11    -153.8804420138144451     2.38e-10  1.29e-06  8.61e-05  1.20e-06     0.4
                 **** Energy Check signals convergence ****

               *****************************************************
               *                     SUCCESS                       *
               *           SCF CONVERGED AFTER  11 CYCLES          *
               *****************************************************

Recomputing exchange energy using gridx3       ... done (    0.450 sec)
Old exchange energy                            :     -6.202806812 Eh
New exchange energy                            :     -6.202800466 Eh
Exchange energy change after final integration :      0.000006346 Eh
Total energy after final integration           :   -153.880435668 Eh
             **** ENERGY FILE WAS UPDATED (orca.en.tmp) ****

----------------
TOTAL SCF ENERGY
----------------

Total Energy       :       -153.88043566807704 Eh           -4187.29953 eV

Components:
Nuclear Repulsion  :         75.16049691230732 Eh            2045.22110 eV
Electronic Energy  :       -229.04093892612175 Eh           -6232.52080 eV
One Electron Energy:       -356.90111488157402 Eh           -9711.77307 eV
Two Electron Energy:        127.86017595545226 Eh            3479.25227 eV

Virial components:
Potential Energy   :       -307.23216144985554 Eh           -8360.21214 eV
Kinetic Energy     :        153.35172578177847 Eh            4172.91261 eV
Virial Ratio       :          2.00344769440059

DFT components:
N(Alpha)           :       11.999989569147 electrons
N(Beta)            :       11.999989569147 electrons
N(Total)           :       23.999979138294 electrons
E(XC)              :      -14.765431216087 Eh       

---------------
SCF CONVERGENCE
---------------

  Last Energy change         ...   -2.3846e-10  Tolerance :   1.0000e-08
  Last MAX-Density change    ...    8.6056e-05  Tolerance :   1.0000e-07
  Last RMS-Density change    ...    1.2942e-06  Tolerance :   5.0000e-09
  Last DIIS Error            ...    1.4919e-03  Tolerance :   5.0000e-07
  Last Orbital Gradient      ...    1.2021e-06  Tolerance :   1.0000e-05
  Last Orbital Rotation      ...    2.9897e-06  Tolerance :   1.0000e-05


----------------
ORBITAL ENERGIES
----------------

  NO   OCC          E(Eh)            E(eV) 
   0   2.0000     -19.350619      -526.5571 
   1   2.0000     -10.401507      -283.0394 
   2   2.0000     -10.397652      -282.9345 
   3   2.0000      -1.198132       -32.6028 
   4   2.0000      -0.814544       -22.1649 
   5   2.0000      -0.751752       -20.4562 
   6   2.0000      -0.630729       -17.1630 
   7   2.0000      -0.594228       -16.1698 
   8   2.0000      -0.498218       -13.5572 
   9   2.0000      -0.490287       -13.3414 
  10   2.0000      -0.427766       -11.6401 
  11   2.0000      -0.383848       -10.4450 
  12   0.0000       0.042106         1.1458 
  13   0.0000       0.058629         1.5954 
  14   0.0000       0.073395         1.9972 
  15   0.0000       0.077695         2.1142 
  16   0.0000       0.114287         3.1099 
  17   0.0000       0.119624         3.2551 
  18   0.0000       0.131479         3.5777 
  19   0.0000       0.152410         4.1473 
  20   0.0000       0.155819         4.2401 
  21   0.0000       0.171970         4.6796 
  22   0.0000       0.198348         5.3973 
*Only the first 10 virtual orbitals were printed.

                    ********************************
                    * MULLIKEN POPULATION ANALYSIS *
                    ********************************

-----------------------
MULLIKEN ATOMIC CHARGES
-----------------------
   0 O :   -0.389184
   1 C :   -0.141640
   2 C :   -0.203094
   3 H :    0.185339
   4 H :    0.185300
   5 H :    0.181660
   6 H :    0.181620
Sum of atomic charges:    0.0000000

--------------------------------
MULLIKEN REDUCED ORBITAL CHARGES
--------------------------------
  0 O s       :     3.958402  s :     3.958402
      pz      :     1.862547  p :     4.407947
      px      :     1.361361
      py      :     1.184038
      dz2     :     0.005195  d :     0.020840
      dxz     :    -0.002859
      dyz     :     0.000192
      dx2y2   :     0.007224
      dxy     :     0.011089
      f0      :     0.000216  f :     0.001996
      f+1     :     0.000175
      f-1     :     0.000450
      f+2     :     0.000087
      f-2     :     0.000156
      f+3     :     0.000405
      f-3     :     0.000506

  1 C s       :     3.248180  s :     3.248180
      pz      :     1.144280  p :     2.734722
      px      :     0.871530
      py      :     0.718912
      dz2     :    -0.003172  d :     0.146363
      dxz     :     0.023236
      dyz     :     0.059438
      dx2y2   :     0.036211
      dxy     :     0.030650
      f0      :     0.001885  f :     0.012375
      f+1     :     0.000926
      f-1     :     0.000881
      f+2     :     0.001556
      f-2     :     0.001904
      f+3     :     0.001873
      f-3     :     0.003350

  2 C s       :     3.300788  s :     3.300788
      pz      :     1.141579  p :     2.798168
      px      :     0.898712
      py      :     0.757877
      dz2     :     0.005723  d :     0.094211
      dxz     :     0.014312
      dyz     :     0.019500
      dx2y2   :     0.027480
      dxy     :     0.027195
      f0      :     0.001375  f :     0.009927
      f+1     :     0.000832
      f-1     :     0.000555
      f+2     :     0.001192
      f-2     :     0.001526
      f+3     :     0.001953
      f-3     :     0.002495

  3 H s       :     0.766863  s :     0.766863
      pz      :     0.023244  p :     0.045313
      px      :     0.013642
      py      :     0.008427
      dz2     :     0.000729  d :     0.002485
      dxz     :     0.000565
      dyz     :     0.000525
      dx2y2   :     0.000306
      dxy     :     0.000360

  4 H s       :     0.766900  s :     0.766900
      pz      :     0.023244  p :     0.045315
      px      :     0.013640
      py      :     0.008431
      dz2     :     0.000729  d :     0.002485
      dxz     :     0.000565
      dyz     :     0.000525
      dx2y2   :     0.000306
      dxy     :     0.000360

  5 H s       :     0.773209  s :     0.773209
      pz      :     0.017145  p :     0.042704
      px      :     0.011783
      py      :     0.013776
      dz2     :     0.000730  d :     0.002427
      dxz     :     0.000573
      dyz     :     0.000544
      dx2y2   :     0.000264
      dxy     :     0.000316

  6 H s       :     0.773235  s :     0.773235
      pz      :     0.017149  p :     0.042718
      px      :     0.011785
      py      :     0.013784
      dz2     :     0.000730  d :     0.002427
      dxz     :     0.000573
      dyz     :     0.000544
      dx2y2   :     0.000264
      dxy     :     0.000316



                     *******************************
                     * LOEWDIN POPULATION ANALYSIS *
                     *******************************

----------------------
LOEWDIN ATOMIC CHARGES
----------------------
   0 O :   -0.031038
   1 C :   -0.090535
   2 C :    0.072502
   3 H :    0.017650
   4 H :    0.017650
   5 H :    0.006886
   6 H :    0.006885

-------------------------------
LOEWDIN REDUCED ORBITAL CHARGES
-------------------------------
  0 O s       :     3.345614  s :     3.345614
      pz      :     1.663255  p :     4.271550
      px      :     1.289082
      py      :     1.319212
      dz2     :     0.032622  d :     0.407695
      dxz     :     0.046451
      dyz     :     0.094846
      dx2y2   :     0.112718
      dxy     :     0.121058
      f0      :     0.000588  f :     0.006179
      f+1     :     0.000225
      f-1     :     0.000923
      f+2     :     0.000213
      f-2     :     0.000820
      f+3     :     0.001093
      f-3     :     0.002317

  1 C s       :     2.645465  s :     2.645465
      pz      :     0.921111  p :     2.529779
      px      :     0.886029
      py      :     0.722639
      dz2     :     0.093207  d :     0.828403
      dxz     :     0.217396
      dyz     :     0.149860
      dx2y2   :     0.197640
      dxy     :     0.170301
      f0      :     0.010972  f :     0.086889
      f+1     :     0.007689
      f-1     :     0.008645
      f+2     :     0.010901
      f-2     :     0.008467
      f+3     :     0.014594
      f-3     :     0.025621

  2 C s       :     2.658189  s :     2.658189
      pz      :     0.938571  p :     2.517625
      px      :     0.898917
      py      :     0.680137
      dz2     :     0.088508  d :     0.687129
      dxz     :     0.210850
      dyz     :     0.095232
      dx2y2   :     0.159398
      dxy     :     0.133142
      f0      :     0.007822  f :     0.064555
      f+1     :     0.007240
      f-1     :     0.006470
      f+2     :     0.007685
      f-2     :     0.005434
      f+3     :     0.012453
      f-3     :     0.017452

  3 H s       :     0.706781  s :     0.706781
      pz      :     0.117026  p :     0.245944
      px      :     0.077474
      py      :     0.051444
      dz2     :     0.009149  d :     0.029625
      dxz     :     0.008462
      dyz     :     0.006094
      dx2y2   :     0.003173
      dxy     :     0.002746

  4 H s       :     0.706777  s :     0.706777
      pz      :     0.117020  p :     0.245949
      px      :     0.077480
      py      :     0.051449
      dz2     :     0.009148  d :     0.029623
      dxz     :     0.008460
      dyz     :     0.006096
      dx2y2   :     0.003174
      dxy     :     0.002745

  5 H s       :     0.709276  s :     0.709276
      pz      :     0.119253  p :     0.253579
      px      :     0.078735
      py      :     0.055591
      dz2     :     0.009552  d :     0.030258
      dxz     :     0.009071
      dyz     :     0.006149
      dx2y2   :     0.002971
      dxy     :     0.002515

  6 H s       :     0.709266  s :     0.709266
      pz      :     0.119261  p :     0.253592
      px      :     0.078737
      py      :     0.055593
      dz2     :     0.009554  d :     0.030258
      dxz     :     0.009070
      dyz     :     0.006151
      dx2y2   :     0.002970
      dxy     :     0.002513



                      *****************************
                      * MAYER POPULATION ANALYSIS *
                      *****************************

  NA   - Mulliken gross atomic population
  ZA   - Total nuclear charge
  QA   - Mulliken gross atomic charge
  VA   - Mayer's total valence
  BVA  - Mayer's bonded valence
  FA   - Mayer's free valence

  ATOM       NA         ZA         QA         VA         BVA        FA
  0 O      8.3892     8.0000    -0.3892     1.6756     1.6756     0.0000
  1 C      6.1416     6.0000    -0.1416     3.6235     3.6235     0.0000
  2 C      6.2031     6.0000    -0.2031     3.6245     3.6245     0.0000
  3 H      0.8147     1.0000     0.1853     1.0603     1.0603     0.0000
  4 H      0.8147     1.0000     0.1853     1.0603     1.0603     0.0000
  5 H      0.8183     1.0000     0.1817     1.0198     1.0198     0.0000
  6 H      0.8184     1.0000     0.1816     1.0198     1.0198     0.0000

  Mayer bond orders larger than 0.100000
B(  0-O ,  1-C ) :   0.7896 B(  0-O ,  2-C ) :   0.8568 B(  1-C ,  2-C ) :   0.8191 
B(  1-C ,  3-H ) :   1.0292 B(  1-C ,  4-H ) :   1.0292 B(  2-C ,  5-H ) :   1.0039 
B(  2-C ,  6-H ) :   1.0039 

-------
TIMINGS
-------

Total SCF time: 0 days 0 hours 0 min 6 sec 

Total time                  ....       6.657 sec
Sum of individual times     ....       6.799 sec  (102.1%)

SCF preparation             ....       0.983 sec  ( 14.8%)
Fock matrix formation       ....       4.561 sec  ( 68.5%)
  Startup                   ....       0.130 sec  (  2.8% of F)
  Split-RI-J                ....       0.526 sec  ( 11.5% of F)
  Chain of spheres X        ....       2.980 sec  ( 65.4% of F)
  XC integration            ....       0.839 sec  ( 18.4% of F)
    XC Preparation          ....       0.000 sec  (  0.0% of XC)
    Basis function eval.    ....       0.079 sec  (  9.5% of XC)
    Density eval.           ....       0.184 sec  ( 21.9% of XC)
    XC-Functional eval.     ....       0.029 sec  (  3.5% of XC)
    XC-Potential eval.      ....       0.246 sec  ( 29.3% of XC)
Diagonalization             ....       0.000 sec  (  0.0%)
Density matrix formation    ....       0.361 sec  (  5.4%)
Total Energy calculation    ....       0.030 sec  (  0.5%)
Population analysis         ....       0.044 sec  (  0.7%)
Orbital Transformation      ....       0.193 sec  (  2.9%)
Orbital Orthonormalization  ....       0.000 sec  (  0.0%)
DIIS solution               ....       0.558 sec  (  8.4%)
SOSCF solution              ....       0.063 sec  (  0.9%)
Finished LeanSCF after   6.7 sec

Maximum memory used throughout the entire LEANSCF-calculation: 13.5 MB
[1741190950.027636] [ohm:187765:0]        ib_iface.c:1059 UCX  ERROR ibv_create_cq(cqe=256) failed: Connection timed out
[1741190950.043852] [ohm:187762:0]        ib_iface.c:1059 UCX  ERROR ibv_create_cq(cqe=256) failed: Connection timed out
[1741190950.046064] [ohm:187766:0]        ib_iface.c:1059 UCX  ERROR ibv_create_cq(cqe=256) failed: Connection timed out
[1741190950.048597] [ohm:187770:0]        ib_iface.c:1059 UCX  ERROR ibv_create_cq(cqe=256) failed: Connection timed out
[1741190950.051751] [ohm:187764:0]        ib_iface.c:1059 UCX  ERROR ibv_create_cq(cqe=256) failed: Connection timed out
[1741190950.085893] [ohm:187760:0]        ib_iface.c:1059 UCX  ERROR ibv_create_cq(cqe=256) failed: Connection timed out
[1741190950.086545] [ohm:187780:0]        ib_iface.c:1059 UCX  ERROR ibv_create_cq(cqe=256) failed: Connection timed out
[1741190950.100044] [ohm:187784:0]        ib_iface.c:1059 UCX  ERROR ibv_create_cq(cqe=256) failed: Connection timed out
[1741190950.101889] [ohm:187761:0]        ib_iface.c:1059 UCX  ERROR ibv_create_cq(cqe=256) failed: Connection timed out
[1741190950.104038] [ohm:187775:0]        ib_iface.c:1059 UCX  ERROR ibv_create_cq(cqe=256) failed: Connection timed out
[1741190950.109791] [ohm:187768:0]        ib_iface.c:1059 UCX  ERROR ibv_create_cq(cqe=256) failed: Connection timed out
[1741190950.110579] [ohm:187763:0]        ib_iface.c:1059 UCX  ERROR ibv_create_cq(cqe=256) failed: Connection timed out
[1741190950.113719] [ohm:187771:0]        ib_iface.c:1059 UCX  ERROR ibv_create_cq(cqe=256) failed: Connection timed out
[1741190950.135880] [ohm:187779:0]        ib_iface.c:1059 UCX  ERROR ibv_create_cq(cqe=256) failed: Connection timed out
[1741190950.137987] [ohm:187781:0]        ib_iface.c:1059 UCX  ERROR ibv_create_cq(cqe=256) failed: Connection timed out
[1741190950.141542] [ohm:187759:0]        ib_iface.c:1059 UCX  ERROR ibv_create_cq(cqe=256) failed: Connection timed out


           ************************************************************
           *        Program running with 16 parallel MPI-processes    *
           *              working on a common directory               *
           ************************************************************

------------------------------------------------------------------------------
                         ORCA PROPERTY INTEGRAL CALCULATIONS
------------------------------------------------------------------------------

GBWName                                   ... orca.gbw
Number of atoms                           ...      7
Number of basis functions                 ...    182
Max core memory                           ...   1024 MB

Dipole integrals                          ... YES
Quadrupole integrals                      ...  NO
Linear momentum integrals                 ... YES
Angular momentum integrals                ... YES
Higher moments length integrals           ...  NO
Higher moments velocity integrals         ...  NO
Kinetic energy integrals                  ...  NO
GIAO right hand sides                     ...  NO
GIAO dipole derivative integrals          ...  NO
SOC integrals                             ...  NO
EPR diamagnetic integrals (GIAO)          ...  NO
EPR gauge integrals                       ...  NO
Field gradient integrals                  ...  NO (   0 nuclei)
Spin-dipole/Fermi contact integrals       ...  NO (   0 nuclei)
Contact density integrals                 ...  NO (   0 nuclei)
Nucleus-orbit integrals                   ...  NO (   0 nuclei)
Geometric perturbations                   ...  NO (   7 nuclei)

Choice of electric origin   ... Center of mass
Position of electric origin ... (  0.0691,  0.0008, -0.0000) 
Choice of magnetic origin   ... GIAO
Position of magnetic origin ... (  0.0000,  0.0000,  0.0000) 

Calculating integrals                     ... Electric Dipole (Length)     done (  0.0 sec)
Calculating integrals                     ... Linear Momentum              done (  0.0 sec)
Calculating integrals                     ... Angular Momentum  (ElOri)    done (  0.0 sec)

Property integrals calculated in   0.0 sec

Maximum memory used throughout the entire PROPINT-calculation: 10.1 MB
[1741190951.410265] [ohm:187843:0]        ib_iface.c:1059 UCX  ERROR ibv_create_cq(cqe=256) failed: Connection timed out
[1741190951.422300] [ohm:187849:0]        ib_iface.c:1059 UCX  ERROR ibv_create_cq(cqe=256) failed: Connection timed out
[1741190951.426316] [ohm:187847:0]        ib_iface.c:1059 UCX  ERROR ibv_create_cq(cqe=256) failed: Connection timed out
[1741190951.438207] [ohm:187844:0]        ib_iface.c:1059 UCX  ERROR ibv_create_cq(cqe=256) failed: Connection timed out
[1741190951.440931] [ohm:187850:0]        ib_iface.c:1059 UCX  ERROR ibv_create_cq(cqe=256) failed: Connection timed out
[1741190951.448320] [ohm:187852:0]        ib_iface.c:1059 UCX  ERROR ibv_create_cq(cqe=256) failed: Connection timed out
[1741190951.450795] [ohm:187845:0]        ib_iface.c:1059 UCX  ERROR ibv_create_cq(cqe=256) failed: Connection timed out
[1741190951.460708] [ohm:187865:0]        ib_iface.c:1059 UCX  ERROR ibv_create_cq(cqe=256) failed: Connection timed out
[1741190951.463677] [ohm:187857:0]        ib_iface.c:1059 UCX  ERROR ibv_create_cq(cqe=256) failed: Connection timed out
[1741190951.465089] [ohm:187846:0]        ib_iface.c:1059 UCX  ERROR ibv_create_cq(cqe=256) failed: Connection timed out
[1741190951.474001] [ohm:187870:0]        ib_iface.c:1059 UCX  ERROR ibv_create_cq(cqe=256) failed: Connection timed out
[1741190951.490788] [ohm:187854:0]        ib_iface.c:1059 UCX  ERROR ibv_create_cq(cqe=256) failed: Connection timed out
[1741190951.496205] [ohm:187842:0]        ib_iface.c:1059 UCX  ERROR ibv_create_cq(cqe=256) failed: Connection timed out
[1741190951.505789] [ohm:187848:0]        ib_iface.c:1059 UCX  ERROR ibv_create_cq(cqe=256) failed: Connection timed out
[1741190951.523700] [ohm:187868:0]        ib_iface.c:1059 UCX  ERROR ibv_create_cq(cqe=256) failed: Connection timed out
[1741190951.529073] [ohm:187860:0]        ib_iface.c:1059 UCX  ERROR ibv_create_cq(cqe=256) failed: Connection timed out


           ************************************************************
           *        Program running with 16 parallel MPI-processes    *
           *              working on a common directory               *
           ************************************************************
------------------------------------------------------------------------------
                        ORCA TD-DFT/TDA CALCULATION
------------------------------------------------------------------------------

Input orbitals are from        ... orca.gbw
CI-vector output               ... orca.cis
Solver                         ... FN-2001
Tamm-Dancoff approximation     ... operative
CIS-Integral strategy          ... AO-integrals
Integral handling              ... AO integral Direct
Max. core memory used          ... 512 MB
Reference state                ... RHF
Generation of triplets         ... off
Follow IRoot                   ... off
Number of operators            ... 1
Orbital ranges used for CIS calculation:
 Operator 0:  Orbitals   3... 11  to  12...181
XAS localization array:
 Operator 0:  Orbitals  -1... -1

-------------------
XC-INTEGRATION GRID
-------------------

General Integration Accuracy     IntAcc      ... 3.467
Radial Grid Type                 RadialGrid  ... OptM3 with GC (2021)
Angular Grid (max. ang.)         AngularGrid ... 1 (Lebedev-50)
Angular grid pruning method      GridPruning ... 4 (adaptive)
Weight generation scheme         WeightScheme... mBecke (2022)
Basis function cutoff            BFCut       ... 1.0000e-11
Integration weight cutoff        WCut        ... 1.0000e-14
Partially contracted basis set               ... off
Rotationally invariant grid construction     ... off
Angular grids for H and He will be reduced by one unit
Diffuse basis detected: some atoms will have their outermost
                        angular grid increased by 1.

Total number of grid points                  ...     4735
Total number of batches                      ...       76
Average number of points per batch           ...       62
Average number of grid points per atom       ...      676

---------------------
COSX-INTEGRATION GRID
---------------------

General Integration Accuracy     IntAcc      ... 3.067
Radial Grid Type                 RadialGrid  ... OptM3 with GC (2021)
Angular Grid (max. ang.)         AngularGrid ... 1 (Lebedev-50)
Angular grid pruning method      GridPruning ... 4 (adaptive)
Weight generation scheme         WeightScheme... mBecke (2022)
Basis function cutoff            BFCut       ... 1.0000e-11
Integration weight cutoff        WCut        ... 1.0000e-14
Partially contracted basis set               ... on
Rotationally invariant grid construction     ... off
Angular grids for H and He will be reduced by one unit
Diffuse basis detected: some atoms will have their outermost
                        angular grid increased by 1.

Total number of grid points                  ...     2153
Total number of batches                      ...       22
Average number of points per batch           ...       97
Average number of grid points per atom       ...      308

---------------
TD-DFT XC SETUP
---------------

DFT calculation                         ... on
Name of the grid file                   ... orca.grid_cis.tmp
RI-approximation                        ... on
Aux-basis dimension                     ... 0
Functional (TD-DFT)
  Functional kind                       .... Exchange-Correlation
  Functional name                       .... wB97M-V exchange-correlation functional
  Functional family                     .... Hybrid MGGA
  Functional refs                              
    [ 0] N. Mardirossian and M. Head-Gordon.,  J. Chem. Phys. 144, 214110 (2016), doi: 10.1063/1.4952647
  Fraction of HF Exchange (short range) .... 0.1500
  Fraction of HF Exchange (long range)  .... 1.0000
  Range separation parameter mu         .... 0.3000
  Functional external parameters        .... 17
    Parameter  0 _cx00      =  8.500000e-01 : u^00 coefficient for exchange
    Parameter  1 _cx01      =  1.007000e+00 : u^01 coefficient for exchange
    Parameter  2 _cx10      =  2.590000e-01 : u^10 coefficient for exchange
    Parameter  3 _css00     =  4.430000e-01 : u^00 coefficient for same-spin correlation
    Parameter  4 _css04     = -1.437000e+00 : u^04 coefficient for same-spin correlation
    Parameter  5 _css10     = -4.535000e+00 : u^10 coefficient for same-spin correlation
    Parameter  6 _css20     = -3.390000e+00 : u^20 coefficient for same-spin correlation
    Parameter  7 _css43     =  4.278000e+00 : u^43 coefficient for same-spin correlation
    Parameter  8 _cos00     =  1.000000e+00 : u^00 coefficient for opposite-spin correlation
    Parameter  9 _cos10     =  1.358000e+00 : u^10 coefficient for opposite-spin correlation
    Parameter 10 _cos20     =  2.924000e+00 : u^20 coefficient for opposite-spin correlation
    Parameter 11 _cos21     = -8.812000e+00 : u^21 coefficient for opposite-spin correlation
    Parameter 12 _cos60     = -1.390000e+00 : u^60 coefficient for opposite-spin correlation
    Parameter 13 _cos61     =  9.142000e+00 : u^61 coefficient for opposite-spin correlation
    Parameter 14 _alpha     =  1.000000e+00 : fraction of HF exchange
    Parameter 15 _beta      = -8.500000e-01 : fraction of short-range exchange
    Parameter 16 _omega     =  3.000000e-01 : range-separation constant
Hybrid DFT                              ... on
   Exchange mixing (TD-DFT)             ...  0.150
   GGA exch. scaling (TD-DFT)           ...  0.000
   GGA corr. scaling (TD-DFT)           ...  1.000
Range-Separated Exchange                ... on
   Range Range separation parameter mu  .... 0.300
   Max. amount of RS exchange (TD-DFT)  ...  0.850

Building densities             ... done
Calculating rho(r) on the grid ... done
Building xc-kernel on the grid ... done
                    *** TD-DFT CALCULATION INITIALIZED ***

------------------------
DAVIDSON-DIAGONALIZATION
------------------------

Dimension of the eigenvalue problem            ...   1530
Number of roots to be determined               ...      4
Maximum size of the expansion space            ...     40
Maximum number of iterations                   ...    100
Convergence tolerance for the residual         ...    2.500e-07
Convergence tolerance for the energies         ...    2.500e-07
Orthogonality tolerance                        ...    1.000e-14
Level Shift                                    ...    0.000e+00
Constructing the preconditioner                ... o.k.
Building the initial guess                     ... o.k.
Number of trial vectors determined             ...     40


                       ****Iteration    0****
   Time for iteration     :  TOTAL=0.8 TRAFO=0.0 RIJ=0.2 COSX=0.3 XC=0.2
   Size of expansion space: 12
   Lowest Energy          :     0.268461664984
   Maximum Energy change  :     0.300755571364 (vector 3)
   Maximum residual norm  :     0.002896320553

                       ****Iteration    1****
   Time for iteration     :  TOTAL=0.3 TRAFO=0.0 RIJ=0.0 COSX=0.1 XC=0.1
   Size of expansion space: 16
   Lowest Energy          :     0.260047639813
   Maximum Energy change  :     0.012464422857 (vector 1)
   Maximum residual norm  :     0.000766155293

                       ****Iteration    2****
   Time for iteration     :  TOTAL=0.3 TRAFO=0.0 RIJ=0.1 COSX=0.1 XC=0.1
   Size of expansion space: 20
   Lowest Energy          :     0.259159159817
   Maximum Energy change  :     0.001814732678 (vector 1)
   Maximum residual norm  :     0.000331501579

                       ****Iteration    3****
   Time for iteration     :  TOTAL=0.2 TRAFO=0.0 RIJ=0.0 COSX=0.1 XC=0.1
   Size of expansion space: 24
   Lowest Energy          :     0.258892310503
   Maximum Energy change  :     0.000565786924 (vector 1)
   Maximum residual norm  :     0.000059938287

                       ****Iteration    4****
   Time for iteration     :  TOTAL=0.2 TRAFO=0.0 RIJ=0.0 COSX=0.1 XC=0.0
   Size of expansion space: 28
   Lowest Energy          :     0.258867928874
   Maximum Energy change  :     0.000061855901 (vector 1)
   Maximum residual norm  :     0.000003501930

                       ****Iteration    5****
   Time for iteration     :  TOTAL=0.2 TRAFO=0.0 RIJ=0.0 COSX=0.1 XC=0.0
   Size of expansion space: 32
   Lowest Energy          :     0.258866542191
   Maximum Energy change  :     0.000004968846 (vector 3)
   Maximum residual norm  :     0.000000939535

                       ****Iteration    6****
   Time for iteration     :  TOTAL=0.2 TRAFO=0.0 RIJ=0.0 COSX=0.1 XC=0.0
   Size of expansion space: 36
   Lowest Energy          :     0.258866500177
   Maximum Energy change  :     0.000001523839 (vector 3)
   Maximum residual norm  :     0.000000360043

                       ****Iteration    7****
   Time for iteration     :  TOTAL=0.2 TRAFO=0.0 RIJ=0.0 COSX=0.1 XC=0.0
   Size of expansion space: 40
   Lowest Energy          :     0.258866498809
   Maximum Energy change  :     0.000000470435 (vector 3)
   Maximum residual norm  :     0.000000044392

      *** CONVERGENCE OF RESIDUAL NORM REACHED ***

Storing the converged CI vectors               ... orca.cis1

                 *** DAVIDSON DONE ***

Total time for solving the CIS problem:     2.545sec

------------------------------------
TD-DFT/TDA EXCITED STATES (SINGLETS)
------------------------------------

the weight of the individual excitations are printed if larger than 1.0e-02

STATE  1:  E=   0.258866 au      7.044 eV    56814.6 cm**-1 <S**2> =   0.000000 Mult 1
    11a ->  12a  :     0.198065 (c=  0.44504446)
    11a ->  13a  :     0.044275 (c= -0.21041540)
    11a ->  14a  :     0.581383 (c=  0.76248452)
    11a ->  16a  :     0.021627 (c=  0.14706221)
    11a ->  17a  :     0.067782 (c= -0.26035032)
    11a ->  20a  :     0.014709 (c=  0.12127953)
    11a ->  21a  :     0.015900 (c= -0.12609624)
    11a ->  23a  :     0.020843 (c=  0.14437143)

STATE  2:  E=   0.269364 au      7.330 eV    59118.5 cm**-1 <S**2> =   0.000000 Mult 1
    11a ->  12a  :     0.699682 (c= -0.83646975)
    11a ->  14a  :     0.160388 (c=  0.40048501)
    11a ->  16a  :     0.012183 (c=  0.11037868)
    11a ->  20a  :     0.042757 (c=  0.20677844)
    11a ->  21a  :     0.027930 (c= -0.16712282)
    11a ->  25a  :     0.021684 (c= -0.14725434)

STATE  3:  E=   0.285377 au      7.766 eV    62633.1 cm**-1 <S**2> =   0.000000 Mult 1
    11a ->  12a  :     0.036717 (c= -0.19161751)
    11a ->  13a  :     0.780217 (c= -0.88329916)
    11a ->  16a  :     0.122406 (c= -0.34986561)
    11a ->  21a  :     0.013847 (c=  0.11767266)

STATE  4:  E=   0.293716 au      7.992 eV    64463.2 cm**-1 <S**2> =   0.000000 Mult 1
    10a ->  12a  :     0.015695 (c=  0.12527973)
    11a ->  15a  :     0.947198 (c= -0.97324078)
    11a ->  31a  :     0.014910 (c=  0.12210612)


-----------------------------
TD-DFT/TDA-EXCITATION SPECTRA
-----------------------------

Center of mass = (  0.0691,  0.0008, -0.0000)
Generating CIS transition densities           ... done

----------------------------------------------------------------------------------------------------
                     ABSORPTION SPECTRUM VIA TRANSITION ELECTRIC DIPOLE MOMENTS    
----------------------------------------------------------------------------------------------------
     Transition      Energy     Energy  Wavelength fosc(D2)      D2        DX        DY        DZ   
                      (eV)      (cm-1)    (nm)                 (au**2)    (au)      (au)      (au)  
----------------------------------------------------------------------------------------------------
  0-1A  ->  1-1A    7.044116   56814.6   176.0   0.000937570   0.00543  -0.00005  -0.00003   0.07371
  0-1A  ->  2-1A    7.329763   59118.5   169.2   0.030343557   0.16897  -0.00006   0.00000   0.41106
  0-1A  ->  3-1A    7.765512   62633.1   159.7   0.000021046   0.00011  -0.00004   0.00015  -0.01052
  0-1A  ->  4-1A    7.992417   64463.2   155.1   0.039778934   0.20315   0.10264  -0.43888  -0.00002

----------------------------------------------------------------------------------------------------
                     ABSORPTION SPECTRUM VIA TRANSITION VELOCITY DIPOLE MOMENTS    
----------------------------------------------------------------------------------------------------
     Transition      Energy     Energy  Wavelength fosc(P2)      P2        PX        PY        PZ   
                      (eV)      (cm-1)    (nm)                 (au**2)    (au)      (au)      (au)  
----------------------------------------------------------------------------------------------------
  0-1A  ->  1-1A    7.044116   56814.6   176.0   0.005469233   0.00212   0.00001   0.00000  -0.04608
  0-1A  ->  2-1A    7.329763   59118.5   169.2   0.037975334   0.01534   0.00001  -0.00000  -0.12387
  0-1A  ->  3-1A    7.765512   62633.1   159.7   0.000008155   0.00000   0.00001  -0.00003   0.00187
  0-1A  ->  4-1A    7.992417   64463.2   155.1   0.028425041   0.01252  -0.02460   0.10917   0.00000

------------------------------------------------------------------------------------------
                     CD SPECTRUM VIA TRANSITION ELECTRIC DIPOLE MOMENTS    
------------------------------------------------------------------------------------------
     Transition      Energy     Energy  Wavelength    R        MX        MY        MZ   
                      (eV)      (cm-1)    (nm)   (1e40*cgs)   (au)      (au)      (au)  
------------------------------------------------------------------------------------------
  0-1A  ->  1-1A    7.044116   56814.6   176.0   -0.01064  -0.35731  -0.10521   0.00001
  0-1A  ->  2-1A    7.329763   59118.5   169.2    0.00343   0.08742  -0.02935  -0.00000
  0-1A  ->  3-1A    7.765512   62633.1   159.7   -0.00063  -0.00870   0.00389  -0.00004
  0-1A  ->  4-1A    7.992417   64463.2   155.1   -0.00508  -0.00001  -0.00003  -0.00232

------------------------------------------------------------------------------------------
                     CD SPECTRUM VIA TRANSITION VELOCITY DIPOLE MOMENTS    
------------------------------------------------------------------------------------------
     Transition      Energy     Energy  Wavelength    R        MX        MY        MZ   
                      (eV)      (cm-1)    (nm)   (1e40*cgs)   (au)      (au)      (au)  
------------------------------------------------------------------------------------------
  0-1A  ->  1-1A    7.044116   56814.6   176.0   -0.00834  -0.35731  -0.10521   0.00001
  0-1A  ->  2-1A    7.329763   59118.5   169.2    0.00306   0.08742  -0.02935  -0.00000
  0-1A  ->  3-1A    7.765512   62633.1   159.7   -0.00042  -0.00870   0.00389  -0.00004
  0-1A  ->  4-1A    7.992417   64463.2   155.1   -0.00431  -0.00001  -0.00003  -0.00232

Total run time:        2.831 sec

           *** ORCA-CIS/TD-DFT FINISHED WITHOUT ERROR ***
-----------------------
CIS/TD-DFT TOTAL ENERGY
-----------------------

    E(SCF)  =   -153.880435668 Eh
    DE(CIS) =      0.258866499 Eh (Root  1)
    ----------------------------- ---------
    E(tot)  =   -153.621569169 Eh


------------------------
TD-DFT GRADIENT XC SETUP
------------------------

Building densities                     ... done
Calculating rho(r) on the grid         ... done
Building xc-kernel on the grid         ... done
Building xc 3rd derivative on the grid ... done
                *** TD-DFT GRADIENT CALCULATION INITIALIZED ***

--------------------------
TD-DFT/TDA RELAXED DENSITY
--------------------------

Reference wavefunction             ... RHF
State of interest                  ... 1
Basis dimension                    ... 182
DFT-XC contribution needed         ... YES
RI-approximation                   ... YES
Do Coulomb                         ... YES
Do Exchange                        ... YES
Need Hartree-Fock Exchange         ... YES
facj, facx                         ...  2.000, -0.150
Conventional                       ... NO
Range separation                   ... YES
Triplet state                      ... NO
Spin Flip                          ... NO
CIS-vectors being read from        ... orca.cis
 => Number of Vectors found: 4
 => Orbital Window: 3...11 -> 12...181

Reading the CIS file                     ... done
Norm of the CI vector                    ... 1.000000000
Making the CIS (pseudo)densities         ... done
Making operators G(D) and Q(T)           ... (SHARK-ok)done
Transforming the Fock operators          ... done
Making the frozen-core relaxed density   ... done
Constructing the G(H) operator           ... (SHARK-ok)done
Transforming the G(H) operator           ... done
Calculating the CIS Lagrangian           ... done
Solving the Z-vector equations           ... 

Using XC Grid                  ... (orca.grid_cpscf.tmp) 
Recalculating density on grid  ... (orca.grho_cpscf0.tmp) done
Calculating the xc-kernel      ... (orca.fxc_cpscf0.tmp) done

-------------------
SHARK CP-SCF DRIVER
-------------------

Dimension of the orbital basis          ...    182
Dimension of the CPSCF-problem          ...   2040
Number of operators                     ...      1
Max. number of iterations               ...    128
Convergence Tolerance                   ... 1.0e-04
Number of perturbations                 ...      1
Perturbation type                       ... REAL

----------------------------
POPLE LINEAR EQUATION SOLVER
----------------------------

  ITERATION   0:   ||err||_max =   1.3259e+00 (   0.2 sec)
  ITERATION   1:   ||err||_max =   4.4607e-02 (   0.2 sec)
  ITERATION   2:   ||err||_max =   8.7107e-03 (   0.2 sec)
  ITERATION   3:   ||err||_max =   2.0724e-03 (   0.2 sec)
  ITERATION   4:   ||err||_max =   8.0511e-04 (   0.2 sec)
  ITERATION   5:   ||err||_max =   1.6478e-04 (   0.2 sec)
  ITERATION   6:   ||err||_max =   3.1052e-05 (   0.2 sec)

Finalizing the relaxed density           ... done
Storing the relaxed density              ... done
Constructing the G(Z) operator           ... (SHARK-ok)done
Adding the XC terms                      ... done
Transforming the G(Z) operator           ... done
Making the W-matrix                      ... done
Finalizing the W-matrix                  ... done
Transforming the W-matrix                ... done
Nuc. rep. gradient        (SHARK) ... done (  0.0 sec)
HCore & Overlap gradient  (SHARK) ... done (  0.0 sec)
Split-RIJ-J gradient      (SHARK) ... done (  0.1 sec)
COSX-gradient                     ... done (  2.2 sec)
Dispersion correction             ... done (  0.1 sec)

-------------------
DISPERSION GRADIENT
-------------------

   1   O   :    0.000006316    0.000135058   -0.000000003
   2   C   :    0.000103255    0.000006079    0.000000011
   3   C   :   -0.000095789    0.000017136   -0.000000011
   4   H   :    0.000173612   -0.000039504    0.000091546
   5   H   :    0.000173605   -0.000039536   -0.000091533
   6   H   :   -0.000180512   -0.000039620   -0.000096629
   7   H   :   -0.000180488   -0.000039614    0.000096619

Difference to translation invariance:
           :   -0.0000000000   -0.0000000000    0.0000000000

Difference to rotation invariance:
           :    0.0000000000    0.0000000000   -0.0000000000

Norm of the Dispersion gradient    ...    0.0004534126
RMS gradient                       ...    0.0000989427
MAX gradient                       ...    0.0001805123

                 ---------------------------
                 EXCITED STATE GRADIENT DONE
                 ---------------------------

------------------
CARTESIAN GRADIENT
------------------

   1   O   :   -0.020174671   -0.053441565    0.000003498
   2   C   :    0.001624662    0.039097466    0.000055129
   3   C   :    0.025889025    0.053739420   -0.000070813
[...]
      f-1     :     0.009619
      f+2     :     0.007425
      f-2     :     0.006638
      f+3     :     0.020138
      f-3     :     0.026305
  2 C s       :     2.725130  s :     2.725130
      pz      :     0.942312  p :     2.503716
      px      :     0.906800
      py      :     0.654604
      dz2     :     0.116624  d :     0.650033
      dxz     :     0.189043
      dyz     :     0.033418
      dx2y2   :     0.166688
      dxy     :     0.144261
      f0      :     0.006488  f :     0.066810
      f+1     :     0.007396
      f-1     :     0.008015
      f+2     :     0.005578
      f-2     :     0.003726
      f+3     :     0.018280
      f-3     :     0.017327
  3 H s       :     0.674213  s :     0.674213
      pz      :     0.133907  p :     0.278435
      px      :     0.080592
      py      :     0.063937
      dz2     :     0.009757  d :     0.030171
      dxz     :     0.008652
      dyz     :     0.005800
      dx2y2   :     0.003295
      dxy     :     0.002667
  4 H s       :     0.674197  s :     0.674197
      pz      :     0.133900  p :     0.278430
      px      :     0.080596
      py      :     0.063934
      dz2     :     0.009755  d :     0.030170
      dxz     :     0.008650
      dyz     :     0.005802
      dx2y2   :     0.003295
      dxy     :     0.002667
  5 H s       :     0.687502  s :     0.687502
      pz      :     0.135473  p :     0.304629
      px      :     0.077012
      py      :     0.092144
      dz2     :     0.009949  d :     0.030266
      dxz     :     0.009179
      dyz     :     0.005773
      dx2y2   :     0.002984
      dxy     :     0.002381
  6 H s       :     0.687492  s :     0.687492
      pz      :     0.135486  p :     0.304639
      px      :     0.077012
      py      :     0.092142
      dz2     :     0.009951  d :     0.030265
      dxz     :     0.009178
      dyz     :     0.005774
      dx2y2   :     0.002983
      dxy     :     0.002379


                      *****************************
                      * MAYER POPULATION ANALYSIS *
                      *****************************

  NA   - Mulliken gross atomic population
  ZA   - Total nuclear charge
  QA   - Mulliken gross atomic charge
  VA   - Mayer's total valence
  BVA  - Mayer's bonded valence
  FA   - Mayer's free valence

  ATOM       NA         ZA         QA         VA         BVA        FA
  0 O      7.8941     8.0000     0.1059     2.1171     1.3303     0.7868
  1 C      6.7005     6.0000    -0.7005     4.4355     3.5726     0.8630
  2 C      6.6647     6.0000    -0.6647     3.9617     3.3748     0.5869
  3 H      0.6623     1.0000     0.3377     0.7819     0.9208    -0.1389
  4 H      0.6625     1.0000     0.3375     0.7821     0.9209    -0.1387
  5 H      0.7079     1.0000     0.2921     0.9199     0.9660    -0.0461
  6 H      0.7079     1.0000     0.2921     0.9199     0.9660    -0.0461

  Mayer bond orders larger than 0.100000
B(  0-O ,  1-C ) :   0.6662 B(  0-O ,  2-C ) :   0.4839 B(  1-C ,  2-C ) :   1.1497 
B(  1-C ,  3-H ) :   0.9290 B(  1-C ,  4-H ) :   0.9291 B(  2-C ,  5-H ) :   0.9453 
B(  2-C ,  6-H ) :   0.9453 


-------
TIMINGS
-------

Total TD-DFT gradient time  ....        5.773 sec

Fock matrix formation       ....       1.262 sec  ( 21.9%)
  Coulomb formation         ....       0.909 sec  ( 72.0% of F)
  XC integration            ....       0.353 sec  ( 28.0% of F)
Z-vector equation           ....       1.428 sec  ( 24.7%)
Densities                   ....       0.000 sec  (  0.0%)
One electron gradient       ....       0.011 sec  (  0.2%)
Two electron gradient       ....       0.000 sec  (  0.0%)
RI-J Coulomb gradient       ....       0.100 sec  (  1.7%)
COSX gradient               ....       0.414 sec  (  7.2%)
XC gradient                 ....       2.221 sec  ( 38.5%)

Maximum memory used throughout the entire CIS-calculation: 34.9 MB
=> NOW LEAVING ORCA_CIS


-------------------------------------------------------------------------------
                          DFT DISPERSION CORRECTION                            
                                                                               
                              DFTD3 V3.1  Rev 1                                
                          USING Becke-Johnson damping                          
-------------------------------------------------------------------------------
The WB97M functional is recognized
Active option DFTDOPT                   ...         4   

molecular C6(AA) [au] = 350.861280 


            DFT-D V3
 parameters
 s6 scaling factor         :     1.0000 
 a1 scaling factor         :     0.5660 
 s8 scaling factor         :     0.3908 
 a2 scaling factor         :     3.1280 
 ad hoc parameters k1-k3   :    16.0000     1.3333    -4.0000 

 Edisp/kcal,au: -3.284899307670  -0.005234819701 
 E6   /kcal   :  -2.649435430 
 E8   /kcal   :  -0.635463877 
 % E8         :  19.345003233 

-------------------------   ----------------
Dispersion correction           -0.005234820
-------------------------   ----------------


-------------------------   --------------------
FINAL SINGLE POINT ENERGY      -153.626803988969
-------------------------   --------------------

[1741190961.238075] [ohm:187981:0]        ib_iface.c:1059 UCX  ERROR ibv_create_cq(cqe=256) failed: Connection timed out
[1741190961.243400] [ohm:187961:0]        ib_iface.c:1059 UCX  ERROR ibv_create_cq(cqe=256) failed: Connection timed out
[1741190961.260270] [ohm:187974:0]        ib_iface.c:1059 UCX  ERROR ibv_create_cq(cqe=256) failed: Connection timed out
[1741190961.263338] [ohm:187967:0]        ib_iface.c:1059 UCX  ERROR ibv_create_cq(cqe=256) failed: Connection timed out
[1741190961.264034] [ohm:187989:0]        ib_iface.c:1059 UCX  ERROR ibv_create_cq(cqe=256) failed: Connection timed out
[1741190961.268722] [ohm:187977:0]        ib_iface.c:1059 UCX  ERROR ibv_create_cq(cqe=256) failed: Connection timed out
[1741190961.271170] [ohm:187968:0]        ib_iface.c:1059 UCX  ERROR ibv_create_cq(cqe=256) failed: Connection timed out
[1741190961.271384] [ohm:187963:0]        ib_iface.c:1059 UCX  ERROR ibv_create_cq(cqe=256) failed: Connection timed out
[1741190961.290245] [ohm:187962:0]        ib_iface.c:1059 UCX  ERROR ibv_create_cq(cqe=256) failed: Connection timed out
[1741190961.293434] [ohm:187965:0]        ib_iface.c:1059 UCX  ERROR ibv_create_cq(cqe=256) failed: Connection timed out
[1741190961.302102] [ohm:187969:0]        ib_iface.c:1059 UCX  ERROR ibv_create_cq(cqe=256) failed: Connection timed out
[1741190961.304732] [ohm:187966:0]        ib_iface.c:1059 UCX  ERROR ibv_create_cq(cqe=256) failed: Connection timed out
[1741190961.304918] [ohm:187960:0]        ib_iface.c:1059 UCX  ERROR ibv_create_cq(cqe=256) failed: Connection timed out
[1741190961.312082] [ohm:187971:0]        ib_iface.c:1059 UCX  ERROR ibv_create_cq(cqe=256) failed: Connection timed out
[1741190961.319042] [ohm:187986:0]        ib_iface.c:1059 UCX  ERROR ibv_create_cq(cqe=256) failed: Connection timed out
[1741190961.323977] [ohm:187964:0]        ib_iface.c:1059 UCX  ERROR ibv_create_cq(cqe=256) failed: Connection timed out


           ************************************************************
           *        Program running with 16 parallel MPI-processes    *
           *              working on a common directory               *
           ************************************************************

------------------------------------------------------------------------------
                              ORCA PROPERTY CALCULATIONS
------------------------------------------------------------------------------

GBWName                                 ... orca.gbw
Number of atoms                         ...      7
Number of basis functions               ...    182
Max core memory                         ...   1024 MB

Electric properties:
Dipole moment                           ... YES
Quadrupole moment                       ...  NO
Static polarizability (Dipole/Dipole)   ...  NO
Static polarizability (Dipole/Quad.)    ...  NO
Static polarizability (Quad./Quad.)     ...  NO
Static polarizability (Velocity)        ...  NO

Atomic electric properties:
Dipole moment                           ...  NO
Quadrupole moment                       ...  NO
Static polarizability                   ...  NO

Choice of electric origin               ... Center of mass
Position of electric origin             ...     0.069141     0.000786    -0.000044

General magnetic properties:
Magnetizability                         ...  NO

EPR properties:
g-Tensor (aka g-matrix)                 ...  NO
Zero-Field splitting spin-orbit         ...  NO
Zero-field splitting spin-spin          ...  NO
Hyperfine couplings                     ...  NO (   0 nuclei)
Quadrupole couplings                    ...  NO (   0 nuclei)
Contact density                         ...  NO (   0 nuclei)

NMR properties:
Chemical shifts                         ...  NO (   0 nuclei)
Spin-rotation constants                 ...  NO (   0 nuclei)
Spin-spin couplings                     ...  NO (   0 nuclei,    0 pairs)

Choice of magnetic origin               ... GIAO
Position of magnetic origin             ...     0.000000     0.000000     0.000000

Properties with geometric perturbations:
SCF Hessian                             ...  NO
IR spectrum                             ...  NO
VCD spectrum                            ...  NO
X-ray spectroscopy properties:
SCF XES/XAS/RIXS spectra                ...  NO


-------------
DIPOLE MOMENT
-------------

Method             : SCF
Type of density    : Electron Density
Multiplicity       :   1
Irrep              :   0
Energy             :  -153.8804356680770411 Eh
Relativity type    : 
Basis              : AO
                                X                 Y                 Z
Electronic contribution:      0.034442384       1.609090921      -0.000133146
Nuclear contribution   :     -0.103616870      -2.420375462       0.000158089
                        -----------------------------------------
Total Dipole Moment    :     -0.069174486      -0.811284541       0.000024942
                        -----------------------------------------
Magnitude (a.u.)       :      0.814228295
Magnitude (Debye)      :      2.069603853



--------------------
Rotational spectrum 
--------------------
 
Rotational constants in cm-1:             0.855063             0.735378             0.469872 
Rotational constants in MHz :         25634.156161         22046.066952         14086.393672 

Dipole components along the rotational axes: 
x,y,z [a.u.] :     0.454904    -0.675300     0.000010 
x,y,z [Debye]:     1.156274    -1.716476     0.000025 

 

-------------
DIPOLE MOMENT
-------------

Method             : TDA/CIS
Type of density    : Electron Density
Level              : Relaxed density
State              :   1
Multiplicity       :   1
Irrep              :   0
Energy             :     0.0000000000000000 Eh
Relativity type    : 
Basis              : AO
                                X                 Y                 Z
Electronic contribution:      0.037126703       0.357489377      -0.000205980
Nuclear contribution   :     -0.103616870      -2.420375462       0.000158089
                        -----------------------------------------
Total Dipole Moment    :     -0.066490167      -2.062886085      -0.000047891
                        -----------------------------------------
Magnitude (a.u.)       :      2.063957351
Magnitude (Debye)      :      5.246162666



--------------------
Rotational spectrum 
--------------------
 
Rotational constants in cm-1:             0.855063             0.735378             0.469872 
Rotational constants in MHz :         25634.156161         22046.066952         14086.393672 

Dipole components along the rotational axes: 
x,y,z [a.u.] :     1.061103    -1.770305    -0.000100 
x,y,z [Debye]:     2.697109    -4.499759    -0.000255 

 

Dipole moment calculation done in   0.4 sec 

Maximum memory used throughout the entire PROP-calculation: 7.3 MB
[1741190963.439339] [ohm:188048:0]        ib_iface.c:1059 UCX  ERROR ibv_create_cq(cqe=256) failed: Connection timed out
[1741190963.472747] [ohm:188046:0]        ib_iface.c:1059 UCX  ERROR ibv_create_cq(cqe=256) failed: Connection timed out
[1741190963.473839] [ohm:188044:0]        ib_iface.c:1059 UCX  ERROR ibv_create_cq(cqe=256) failed: Connection timed out
[1741190963.543172] [ohm:188050:0]        ib_iface.c:1059 UCX  ERROR ibv_create_cq(cqe=256) failed: Connection timed out
[1741190963.587644] [ohm:188054:0]        ib_iface.c:1059 UCX  ERROR ibv_create_cq(cqe=256) failed: Connection timed out
[1741190963.615355] [ohm:188059:0]        ib_iface.c:1059 UCX  ERROR ibv_create_cq(cqe=256) failed: Connection timed out
[1741190963.616399] [ohm:188074:0]        ib_iface.c:1059 UCX  ERROR ibv_create_cq(cqe=256) failed: Connection timed out
[1741190963.617166] [ohm:188068:0]        ib_iface.c:1059 UCX  ERROR ibv_create_cq(cqe=256) failed: Connection timed out
[1741190963.653472] [ohm:188047:0]        ib_iface.c:1059 UCX  ERROR ibv_create_cq(cqe=256) failed: Connection timed out
[1741190963.679817] [ohm:188043:0]        ib_iface.c:1059 UCX  ERROR ibv_create_cq(cqe=256) failed: Connection timed out
[1741190963.685858] [ohm:188055:0]        ib_iface.c:1059 UCX  ERROR ibv_create_cq(cqe=256) failed: Connection timed out
[1741190963.719583] [ohm:188045:0]        ib_iface.c:1059 UCX  ERROR ibv_create_cq(cqe=256) failed: Connection timed out
[1741190963.723006] [ohm:188049:0]        ib_iface.c:1059 UCX  ERROR ibv_create_cq(cqe=256) failed: Connection timed out
[1741190963.725096] [ohm:188052:0]        ib_iface.c:1059 UCX  ERROR ibv_create_cq(cqe=256) failed: Connection timed out
[1741190963.725442] [ohm:188064:0]        ib_iface.c:1059 UCX  ERROR ibv_create_cq(cqe=256) failed: Connection timed out
[1741190963.727986] [ohm:188070:0]        ib_iface.c:1059 UCX  ERROR ibv_create_cq(cqe=256) failed: Connection timed out

--------------------------------
SUGGESTED CITATIONS FOR THIS RUN
--------------------------------

Below you find a list of papers that are relevant to this ORCA run
We neither can nor want to force you to cite these papers, but we appreciate if you do
You receive ORCA, which is the product of decades of hard work by many enthusiastic individuals, for free
The only thing we kindly ask in return is that you cite our papers,
We deeply appreciate it, if you show your appreciation for ORCA by not just citing the generic ORCA reference.

Please note that relegating all ORCA citations to the supporting information does *not* help us.
SI sections are not indexed - citations you put there will not count into any citation statistics
But we need these citations in order to attract the funding resources that allow us to do what we are doing

Therefore, if you are a happy ORCA user, please consider citing a few of the papers listed below in the main body of your paper

In addition to the list printed below, the program has created the file orca.bibtex that contains the list in bibtex format
You can import this file easily into all common literature databanks and citation aid programs


List of essential papers. We consider these as the minimum necessary citations

  1. Neese,F.
     Software update: the ORCA program system, version 5.0
     WIRES Comput. Molec. Sci., 2022 12(1)e1606
     doi.org/10.1002/wcms.1606

List of papers to cite with high priority. The work reported in these papers was absolutely
necessary for this run to complete.
Our perspective: the developers of density functionals and basis sets usually get cited in chemistry papers
Good! But without the algorithms to do something with them, the functionals or basis sets would not do anything.
Hence, in our opinion, the algorithm design and method developments papers are equally worthy of getting cited

  1. Neese,F.; Olbrich,G.
     Efficient use of the resolution of the identity approximation in time-dependent density functional calculations with hybrid density functionals
     Chem. Phys. Lett., 2002 362 170-178
     doi.org/10.1016/s0009-2614(02)01053-9
  2. Neese,F.
     An improvement of the resolution of the identity approximation for the formation of the Coulomb matrix
     J. Comp. Chem., 2003 24(14)1740-1747
     doi.org/10.1002/jcc.10318
  3. Neese,F.; Wennmohs,F.; Hansen,A.; Becker,U.
     Efficient, approximate and parallel Hartree-Fock and hybrid DFT calculations. A 'chain-of-spheres' algorithm for the Hartree-Fock exchange
     Chem. Phys., 2009 356(1-3)98-109
     doi.org/10.1016/j.chemphys.2008.10.036
  4. Petrenko,T.; Kossmann,S.; Neese,F.
     Efficient time-dependent density functional theory approximations for hybrid density functionals: Analytical gradients and parallelization
     J. Chem. Phys., 2011 134 054116
     doi.org/10.1063/1.3533441
  5. Helmich-Paris,B.; de Souza,B.; Neese,F.; Izsák,R.
     An improved chain of spheres for exchange algorithm
     J. Chem. Phys., 2021 155 104109
     doi.org/doi: 10.1063/5.0058766.
  6. Neese,F.
     The SHARK Integral Generation and Digestion System
     J. Comp. Chem., 2022  1-16
     doi.org/10.1002/jcc.26942
  7. Lehtola,S.; Steigemann,C.; Oliveira,M.; Marques,M.
     Recent developments in Libxc - A comprehensive library of functionals for density functional theory
     Software X, 2018 7 
     doi.org/10.1016/j.softx.2017.11.002
  8. Grimme,S.; Antony,J.; Ehrlich,S.; Krieg,H.
     A consistent and accurate ab initio parametrization of density functional dispersion correction (DFT-D) for the 94 elements H-Pu
     J. Chem. Phys., 2010 132 154104-XXXX
     doi.org/10.1063/1.3382344
  9. Grimme,S.; Ehrlich,S.; Goerigk,L.
     Effect of the damping function in dispersion corrected density functional theory
     J. Comput. Chem., 2011 32(7)1456-1465
     doi.org/10.1002/jcc.21759

List of suggested additional citations. These are papers that are important in the 'surrounding' of 
of this run, or papers that preceded the highly important papers. If you like your results we are grateful for a citation.

  1. Izsak,R.; Neese,F.
     An overlap fitted chain of spheres exchange method
     J. Chem. Phys., 2011 135 144105
     doi.org/10.1063/1.3646921
  2. Izsak,R.; Hansen,A.; Neese,F.
     The resolution of identity and chain of spheres approximations for the LPNO-CCSD singles Fock term
     Molec. Phys., 2012 110 2413-2417
     doi.org/10.1080/00268976.2012.687466
  3. Neese,F.
     The ORCA program system
     WIRES Comput. Molec. Sci., 2012 2(1)73-78
     doi.org/10.1002/wcms.81
  4. Izsak,R.; Neese,F.; Klopper,W.
     Robust fitting techniques in the chain of spheres approximation to the Fock exchange: The role of the complementary space
     J. Chem. Phys., 2013 139 
     doi.org/10.1063/1.4819264
  5. Neese,F.
     Software update: the ORCA program system, version 4.0
     WIRES Comput. Molec. Sci., 2018 8(1)1-6
     doi.org/10.1002/wcms.1327
  6. Neese,F.; Wennmohs,F.; Becker,U.; Riplinger,C.
     The ORCA quantum chemistry program package
     J. Chem. Phys., 2020 152 Art. No. L224108
     doi.org/10.1063/5.0004608

List of optional additional citations

  1. Neese,F.
     Approximate second-order SCF convergence for spin unrestricted wavefunctions
     Chem. Phys. Lett., 2000 325(1-3)93-98
     doi.org/10.1016/s0009-2614(00)00662-x

Timings for individual modules:

Sum of individual times          ...       24.588 sec (=   0.410 min)
Startup calculation              ...        1.779 sec (=   0.030 min)   7.2 %
SCF iterations                   ...        9.335 sec (=   0.156 min)  38.0 %
Property integrals               ...        1.650 sec (=   0.027 min)   6.7 %
Property calculations            ...        2.063 sec (=   0.034 min)   8.4 %
CIS module                       ...        9.762 sec (=   0.163 min)  39.7 %
                             ****ORCA TERMINATED NORMALLY****
TOTAL RUN TIME: 0 days 0 hours 0 minutes 26 seconds 190 msec
