
                                 *****************
                                 * O   R   C   A *
                                 *****************

                                            #,                                       
                                            ###                                      
                                            ####                                     
                                            #####                                    
                                            ######                                   
                                           ########,                                 
                                     ,,################,,,,,                         
                               ,,#################################,,                 
                          ,,##########################################,,             
                       ,#########################################, ''#####,          
                    ,#############################################,,   '####,        
                  ,##################################################,,,,####,       
                ,###########''''           ''''###############################       
              ,#####''   ,,,,##########,,,,          '''####'''          '####       
            ,##' ,,,,###########################,,,                        '##       
           ' ,,###''''                  '''############,,,                           
         ,,##''                                '''############,,,,        ,,,,,,###''
      ,#''                                            '''#######################'''  
     '                                                          ''''####''''         
             ,#######,   #######,   ,#######,      ##                                
            ,#'     '#,  ##    ##  ,#'     '#,    #''#        ,####,   ,####,        
            ##       ##  ##   ,#'  ##            #'  '#       #'       #'  '#        
            ##       ##  #######   ##           ,######,      #####,   #    #        
            '#,     ,#'  ##    ##  '#,     ,#' ,#      #,     #,   #   #,  ,#        
             '#######'   ##     ##  '#######'  #'      '#     '####' # '####'        



                #########################################################
                #                        -***-                          #
                #          Department of theory and spectroscopy        #
                #                                                       #
                #                      Frank Neese                      #
                #                                                       #
                #     Directorship, Architecture, Infrastructure        #
                #                    SHARK, DRIVERS                     #
                #        Core code/Algorithms in most modules           #
                #                                                       #
                #        Max Planck Institute fuer Kohlenforschung      #
                #                Kaiser Wilhelm Platz 1                 #
                #                 D-45470 Muelheim/Ruhr                 #
                #                      Germany                          #
                #                                                       #
                #                  All rights reserved                  #
                #                        -***-                          #
                #########################################################


                         Program Version 6.0.0  -   RELEASE  -


 With contributions from (in alphabetic order):
   Daniel Aravena         : Magnetic Suceptibility
   Michael Atanasov       : Ab Initio Ligand Field Theory (pilot matlab implementation)
   Alexander A. Auer      : GIAO ZORA, VPT2 properties, NMR spectrum
   Ute Becker             : All parallelization in ORCA, NUMFREQ, NUMCALC
   Giovanni Bistoni       : ED, misc. LED, open-shell LED, HFLD
   Martin Brehm           : Molecular dynamics
   Dmytro Bykov           : pre 5.0 version of the SCF Hessian
   Marcos Casanova-Páez   : Triplet and SCS-CIS(D). UHF-(DLPNO)-IP/EA/STEOM-CCSD. UHF-CVS-IP/STEOM-CCSD
   Vijay G. Chilkuri      : MRCI spin determinant printing, contributions to CSF-ICE
   Pauline Colinet        : FMM embedding
   Dipayan Datta          : RHF DLPNO-CCSD density
   Achintya Kumar Dutta   : EOM-CC, STEOM-CC
   Nicolas Foglia         : Exact transition moments, OPA infrastructure, MCD improvements
   Dmitry Ganyushin       : Spin-Orbit,Spin-Spin,Magnetic field MRCI
   Miquel Garcia          : C-PCM and meta-GGA Hessian, CCSD/C-PCM, Gaussian charge scheme
   Tiago L. C. Gouveia    : GS-ROHF, GS-ROCIS
   Yang Guo               : DLPNO-NEVPT2, F12-NEVPT2, CIM, IAO-localization
   Andreas Hansen         : Spin unrestricted coupled pair/coupled cluster methods
   Ingolf Harden          : AUTO-CI MPn and infrastructure 
   Benjamin Helmich-Paris : MC-RPA, TRAH-(SCF,CASSCF), AVAS, COSX integrals, SCF dyn. polar.
   Lee Huntington         : MR-EOM, pCC
   Robert Izsak           : Overlap fitted RIJCOSX, COSX-SCS-MP3, EOM
   Riya Kayal             : Wick's Theorem for AUTO-CI, AUTO-CI UHF-CCSDT
   Emily Kempfer          : AUTO-CI, RHF CISDT and CCSDT
   Christian Kollmar      : KDIIS, OOCD, Brueckner-CCSD(T), CCSD density, CASPT2, CASPT2-K, improved NEVPT2
   Axel Koslowski         : Symmetry handling
   Simone Kossmann        : Meta GGA functionals, TD-DFT gradient, OOMP2, (MP2 Hessian; deprecated post 5.0)
   Lucas Lang             : DCDCAS
   Marvin Lechner         : AUTO-CI (C++ implementation), FIC-MRCC
   Spencer Leger          : CASSCF response
   Dagmar Lenk            : GEPOL surface, SMD, ORCA-2-JSON
   Dimitrios Liakos       : Extrapolation schemes; Compound Job, initial MDCI parallelization
   Dimitrios Manganas     : Further ROCIS development; embedding schemes. LFT, Crystal Embedding
   Dimitrios Pantazis     : SARC Basis sets
   Anastasios Papadopoulos: AUTO-CI, single reference methods and gradients
   Taras Petrenko         : pre 6.0 DFT Hessian and TD-DFT gradient, (ASA, deprecated), ECA, 1-Electron XAS/XES, NRVS
   Peter Pinski           : DLPNO-MP2, DLPNO-MP2 Gradient
   Christoph Reimann      : Effective Core Potentials
   Marius Retegan         : Local ZFS, SOC
   Christoph Riplinger    : Optimizer, TS searches, QM/MM, DLPNO-CCSD(T), (RO)-DLPNO pert. Triples
   Michael Roemelt        : Original ROCIS implementation
   Masaaki Saitow         : Open-shell DLPNO-CCSD energy and density
   Barbara Sandhoefer     : DKH picture change effects
   Kantharuban Sivalingam : CASSCF convergence/infrastructure, NEVPT2 and variants, FIC-MRCI
   Bernardo de Souza      : ESD, SOC TD-DFT
   Georgi Stoychev        : AutoAux, RI-MP2 NMR, DLPNO-MP2 response, X2C
   Van Anh Tran           : RI-MP2 g-tensors
   Willem Van den Heuvel  : Paramagnetic NMR
   Zikuan Wang            : NOTCH, Electric field optimization 
   Frank Wennmohs         : Technical directorship and infrastructure
   Hang Xu                : AUTO-CI-Response properties 


 We gratefully acknowledge several colleagues who have allowed us to
 interface, adapt or use parts of their codes:
   Stefan Grimme, W. Hujo, H. Kruse, P. Pracht,  : VdW corrections, initial TS optimization,
                  C. Bannwarth, S. Ehlert,         DFT functionals, gCP, sTDA/sTD-DF
                  L. Wittmann, M. Mueller
   Ed Valeev, F. Pavosevic, A. Kumar             : LibInt (2-el integral package), F12 methods
   Garnet Chan, S. Sharma, J. Yang, R. Olivares  : DMRG
   Ulf Ekstrom                                   : XCFun DFT Library
   Mihaly Kallay                                 : mrcc  (arbitrary order and MRCC methods)
   Frank Weinhold                                : gennbo (NPA and NBO analysis)
   Simon Mueller                                 : openCOSMO-RS
   Christopher J. Cramer and Donald G. Truhlar   : smd solvation model
   Lars Goerigk                                  : TD-DFT with DH, B97 family of functionals
   V. Asgeirsson, H. Jonsson                     : NEB implementation
   FAccTs GmbH                                   : IRC, NEB, NEB-TS, DLPNO-Multilevel, CI-OPT
                                                   MM, QMMM, 2- and 3-layer-ONIOM, Crystal-QMMM,
                                                   LR-CPCM, SF, NACMEs, symmetry and pop. for TD-DFT,
                                                   nearIR, NL-DFT gradient (VV10), updates on ESD,
                                                   ML-optimized integration grids, MBIS, APM,
                                                   GOAT, DOCKER, SOLVATOR, interface openCOSMO-RS
   S Lehtola, MJT Oliveira, MAL Marques          : LibXC Library
   Liviu Ungur et al                             : ANISO software


 Your calculation uses the libint2 library for the computation of 2-el integrals
 For citations please refer to: http://libint.valeyev.net

 Your ORCA version has been built with support for libXC version: 6.2.2
 For citations please refer to: https://libxc.gitlab.io

 This ORCA versions uses:
   CBLAS   interface :  Fast vector & matrix operations
   LAPACKE interface :  Fast linear algebra routines
   SCALAPACK package :  Parallel linear algebra routines
   Shared memory     :  Shared parallel matrices
   BLAS/LAPACK       :  OpenBLAS 0.3.27  USE64BITINT DYNAMIC_ARCH NO_AFFINITY Zen SINGLE_THREADED
        Core in use  :  Zen
   Copyright (c) 2011-2014, The OpenBLAS Project


Your calculation utilizes the atom-pairwise dispersion correction
with the Becke-Johnson damping scheme (D3BJ)


Warning: RI is on but no J-basis has been assigned. Assigning Def2/J (nothing to worry about!)
================================================================================

----- Orbital basis set information -----
Your calculation utilizes the basis: def2-TZVPPD
   F. Weigend and R. Ahlrichs, Phys. Chem. Chem. Phys. 7, 3297 (2005).
   D. Rappoport and F. Furche, J. Chem. Phys. 133, 134105 (2010)
   D. Rappoport, J. Chem. Phys. 155, 124102 (2021).

----- AuxJ basis set information -----
Your calculation utilizes the auxiliary basis: def2/J
   F. Weigend, Phys. Chem. Chem. Phys. 8, 1057 (2006).

================================================================================
                                        WARNINGS
                       Please study these warnings very carefully!
================================================================================

Using LibXC functional ID 531 : wB97M-V exchange-correlation functional
[ 1]  N. Mardirossian and M. Head-Gordon.,  J. Chem. Phys. 144, 214110 (2016)
Using LibXC functional ID 531 : wB97M-V exchange-correlation functional
[ 1]  N. Mardirossian and M. Head-Gordon.,  J. Chem. Phys. 144, 214110 (2016)

WARNING: B97M-V or wB97M-V functional requested.
  ===> : libXC variant has now been activated.
         Any manually given DFX/HFX/RangeSep scaling parameters are IGNORED!

Your calculation utilizes LibXC
 by S Lehtola, C Steigemann, MJT Oliveira & MAL Marques
Please cite in your paper:
 S Lehtola, C Steigemann, MJT Oliveira & MAL Marques, SoftwareX, 7, (2018), 1.
   


WARNING: your system is open-shell and RHF/RKS was chosen
  ===> : WILL SWITCH to UHF/UKS

INFO   : Checking CIS options ...

WARNING: CIS/ROCIS methods need fully converged wavefunctions
  ===> : Setting SCFConvForced true
         You can overwrite this default with %scf ConvForced false 


================================================================================
                                       INPUT FILE
================================================================================
NAME = orca.inp
|  1> ! Engrad def2-TZVPPD wB97M-D3BJ 
|  2> %pal nprocs 8 end%pal nprocs 64 end 
|  3> %tddft 
|  4>  Iroot 1 Nroots 3 
|  5> sf true 
|  6> end 
|  7> *xyz 0 3 
|  8> O   2.94176949 -1.31250531 -2.33037797
|  9> O   -2.26247547 1.56213017 -1.28327314
| 10> O   -1.46235935 -2.16156151 -1.31360516
| 11> O   -2.43324083 0.99067075 3.23327077
| 12> N   -0.09975955 -1.532385 0.33017559
| 13> N   -0.41596992 0.58271367 2.23621038
| 14> N   0.63929025 -1.69960488 -1.8867426
| 15> N   -2.26182022 1.09471244 0.93230914
| 16> C   2.08221877 -0.64219561 -0.25443786
| 17> C   -0.14939565 1.41687145 -0.10347935
| 18> C   1.00159422 -0.70867428 0.67805815
| 19> C   0.4566585 0.71142901 1.10140367
| 20> C   3.45898573 -0.16192265 0.11259974
| 21> C   0.53108564 1.8137912 -1.34880246
| 22> C   1.95371496 -1.25180176 -1.579921
| 23> C   -1.59892167 1.4013072 -0.2305161
| 24> C   -0.42264043 -1.7859385 -0.92097996
| 25> C   -1.75224715 0.90896123 2.2309197
| 26> H   1.36317063 -1.07951616 1.65746516
| 27> H   1.29023561 1.26548283 1.521249
| 28> H   3.44414216 -0.13456388 1.16750287
| 29> H   4.17689057 -0.71444312 -0.3174302
| 30> H   3.71394804 0.87465853 -0.15879708
| 31> H   0.19492052 2.8896027 -1.48158438
| 32> H   1.6079711 1.83132581 -1.27591271
| 33> H   0.29573446 1.21785402 -2.18394381
| 34> H   -0.81182718 -1.60477561 1.0459787
| 35> H   -0.00898492 0.80108419 3.13084105
| 36> H   0.55710038 -2.32777217 -2.66003277
| 37> H   -3.25643913 0.97164363 0.91403138
| 38> *
| 39> 
| 40>                          ****END OF INPUT****
================================================================================

                     *******************************
                     * Energy+Gradient Calculation *
                     *******************************

---------------------------------
CARTESIAN COORDINATES (ANGSTROEM)
---------------------------------
  O      2.941769   -1.312505   -2.330378
  O     -2.262475    1.562130   -1.283273
  O     -1.462359   -2.161562   -1.313605
  O     -2.433241    0.990671    3.233271
  N     -0.099760   -1.532385    0.330176
  N     -0.415970    0.582714    2.236210
  N      0.639290   -1.699605   -1.886743
  N     -2.261820    1.094712    0.932309
  C      2.082219   -0.642196   -0.254438
  C     -0.149396    1.416871   -0.103479
  C      1.001594   -0.708674    0.678058
  C      0.456659    0.711429    1.101404
  C      3.458986   -0.161923    0.112600
  C      0.531086    1.813791   -1.348802
  C      1.953715   -1.251802   -1.579921
  C     -1.598922    1.401307   -0.230516
  C     -0.422640   -1.785938   -0.920980
  C     -1.752247    0.908961    2.230920
  H      1.363171   -1.079516    1.657465
  H      1.290236    1.265483    1.521249
  H      3.444142   -0.134564    1.167503
  H      4.176891   -0.714443   -0.317430
  H      3.713948    0.874659   -0.158797
  H      0.194921    2.889603   -1.481584
  H      1.607971    1.831326   -1.275913
  H      0.295734    1.217854   -2.183944
  H     -0.811827   -1.604776    1.045979
  H     -0.008985    0.801084    3.130841
  H      0.557100   -2.327772   -2.660033
  H     -3.256439    0.971644    0.914031

----------------------------
CARTESIAN COORDINATES (A.U.)
----------------------------
  NO LB      ZA    FRAG     MASS         X           Y           Z
   0 O     8.0000    0    15.999    5.559139   -2.480276   -4.403776
   1 O     8.0000    0    15.999   -4.275459    2.951998   -2.425035
   2 O     8.0000    0    15.999   -2.763459   -4.084759   -2.482354
   3 O     8.0000    0    15.999   -4.598159    1.872096    6.109996
   4 N     7.0000    0    14.007   -0.188518   -2.895788    0.623941
   5 N     7.0000    0    14.007   -0.786069    1.101169    4.225825
   6 N     7.0000    0    14.007    1.208083   -3.211788   -3.565427
   7 N     7.0000    0    14.007   -4.274221    2.068707    1.761809
   8 C     6.0000    0    12.011    3.934823   -1.213574   -0.480818
   9 C     6.0000    0    12.011   -0.282317    2.677499   -0.195548
  10 C     6.0000    0    12.011    1.892739   -1.339200    1.281344
  11 C     6.0000    0    12.011    0.862960    1.344406    2.081351
  12 C     6.0000    0    12.011    6.536536   -0.305989    0.212783
  13 C     6.0000    0    12.011    1.003606    3.427569   -2.548867
  14 C     6.0000    0    12.011    3.691986   -2.365563   -2.985618
  15 C     6.0000    0    12.011   -3.021524    2.648087   -0.435612
  16 C     6.0000    0    12.011   -0.798675   -3.374935   -1.740400
  17 C     6.0000    0    12.011   -3.311267    1.717688    4.215827
  18 H     1.0000    0     1.008    2.576019   -2.039990    3.132155
  19 H     1.0000    0     1.008    2.438192    2.391416    2.874744
  20 H     1.0000    0     1.008    6.508485   -0.254289    2.206261
  21 H     1.0000    0     1.008    7.893179   -1.350102   -0.599856
  22 H     1.0000    0     1.008    7.018345    1.652865   -0.300083
  23 H     1.0000    0     1.008    0.368346    5.460558   -2.799789
  24 H     1.0000    0     1.008    3.038625    3.460704   -2.411126
  25 H     1.0000    0     1.008    0.558857    2.301411   -4.127056
  26 H     1.0000    0     1.008   -1.534131   -3.032586    1.976613
  27 H     1.0000    0     1.008   -0.016979    1.513830    5.916432
  28 H     1.0000    0     1.008    1.052767   -4.398852   -5.026733
  29 H     1.0000    0     1.008   -6.153778    1.836140    1.727269

--------------------------------
INTERNAL COORDINATES (ANGSTROEM)
--------------------------------
 O      0   0   0     0.000000000000     0.00000000     0.00000000
 O      1   0   0     6.036896824658     0.00000000     0.00000000
 O      2   1   0     3.808803692056    49.60796256     0.00000000
 O      2   1   3     4.555754116262    98.31071377    74.56860085
 N      3   2   1     2.225883296529    81.16256433    61.02324184
 N      4   2   1     2.286906278089    63.70955530    14.98484121
 N      3   2   1     2.226841147076    89.85654479   357.84971689
 N      2   1   3     2.264350812732    94.08124169    71.56799920
 C      1   2   3     2.344711042852    52.71880597   272.73966225
 C      8   2   1     2.374654035366    62.96478974    32.94681884
 C      5   3   2     1.418626713582   145.13220180   299.76947937
 C      6   4   2     1.437301035693   149.74600854    16.03656895
 C      9   1   2     1.503617630273    88.38240509   223.40787624
 C     10   8   2     1.473577185722   144.68215178     6.64049548
 C      1   2   3     1.242224753842    35.53702636   314.02330857
 C      2   1   3     1.254776895884    68.19868881    90.88744624
 C      3   2   1     1.173142201919    82.55830700    32.42917208
 C      4   2   1     1.214551977228    33.82315501    12.14298457
 H     11   5   3     1.107925670552   106.00938286   194.62516038
 H     12   6   4     1.085401554677   101.92201120   119.03952669
 H     13   9   1     1.055362235230   103.85105872   201.28814987
 H     13   9   1     1.002792091294   112.01443099   328.36969433
 H     13   9   1     1.101436587442   116.89836208    88.63743423
 H     14  10   8     1.134904581767   102.55777298    62.41825912
 H     14  10   8     1.079491858312   114.07836823   177.42419381
 H     14  10   8     1.052612167379   114.50392287   300.63557099
 H      5   3   2     1.012252341265    94.09283167    85.78021364
 H      6   4   2     1.006819998776    86.01314299   154.57536068
 H      7   3   2     0.999663446353    89.49246521   232.89847909
 H      8   2   1     1.002370582487    90.41341582   217.31609243

---------------------------
INTERNAL COORDINATES (A.U.)
---------------------------
 O      0   0   0     0.000000000000     0.00000000     0.00000000
 O      1   0   0    11.408081697343     0.00000000     0.00000000
 O      2   1   0     7.197595875855    49.60796256     0.00000000
 O      2   1   3     8.609127613220    98.31071377    74.56860085
 N      3   2   1     4.206309836509    81.16256433    61.02324184
 N      4   2   1     4.321626559533    63.70955530    14.98484121
 N      3   2   1     4.208119911721    89.85654479   357.84971689
 N      2   1   3     4.279002907186    94.08124169    71.56799920
 C      1   2   3     4.430861734172    52.71880597   272.73966225
 C      8   2   1     4.487445789653    62.96478974    32.94681884
 C      5   3   2     2.680815974935   145.13220180   299.76947937
 C      6   4   2     2.716105329461   149.74600854    16.03656895
 C      9   1   2     2.841425531352    88.38240509   223.40787624
 C     10   8   2     2.784657318209   144.68215178     6.64049548
 C      1   2   3     2.347464581539    35.53702636   314.02330857
 C      2   1   3     2.371184692392    68.19868881    90.88744624
 C      3   2   1     2.216917477772    82.55830700    32.42917208
 C      4   2   1     2.295170612374    33.82315501    12.14298457
 H     11   5   3     2.093676094084   106.00938286   194.62516038
 H     12   6   4     2.051111683672   101.92201120   119.03952669
 H     13   9   1     1.994345596668   103.85105872   201.28814987
 H     13   9   1     1.895002421807   112.01443099   328.36969433
 H     13   9   1     2.081413504147   116.89836208    88.63743423
 H     14  10   8     2.144658847672   102.55777298    62.41825912
 H     14  10   8     2.039943976008   114.07836823   177.42419381
 H     14  10   8     1.989148721579   114.50392287   300.63557099
 H      5   3   2     1.912879703411    94.09283167    85.78021364
 H      6   4   2     1.902614063841    86.01314299   154.57536068
 H      7   3   2     1.889090139700    89.49246521   232.89847909
 H      8   2   1     1.894205885599    90.41341582   217.31609243

---------------------
BASIS SET INFORMATION
---------------------
There are 4 groups of distinct atoms

 Group   1 Type O   : 12s7p3d1f contracted to 6s4p3d1f pattern {621111/4111/111/1}
 Group   2 Type N   : 12s6p3d1f contracted to 6s3p3d1f pattern {621111/411/111/1}
 Group   3 Type C   : 12s6p3d1f contracted to 6s3p3d1f pattern {621111/411/111/1}
 Group   4 Type H   : 5s3p1d contracted to 3s3p1d pattern {311/111/1}

Atom   0O    basis set group =>   1
Atom   1O    basis set group =>   1
Atom   2O    basis set group =>   1
Atom   3O    basis set group =>   1
Atom   4N    basis set group =>   2
Atom   5N    basis set group =>   2
Atom   6N    basis set group =>   2
Atom   7N    basis set group =>   2
Atom   8C    basis set group =>   3
Atom   9C    basis set group =>   3
Atom  10C    basis set group =>   3
Atom  11C    basis set group =>   3
Atom  12C    basis set group =>   3
Atom  13C    basis set group =>   3
Atom  14C    basis set group =>   3
Atom  15C    basis set group =>   3
Atom  16C    basis set group =>   3
Atom  17C    basis set group =>   3
Atom  18H    basis set group =>   4
Atom  19H    basis set group =>   4
Atom  20H    basis set group =>   4
Atom  21H    basis set group =>   4
Atom  22H    basis set group =>   4
Atom  23H    basis set group =>   4
Atom  24H    basis set group =>   4
Atom  25H    basis set group =>   4
Atom  26H    basis set group =>   4
Atom  27H    basis set group =>   4
Atom  28H    basis set group =>   4
Atom  29H    basis set group =>   4
---------------------------------
AUXILIARY/J BASIS SET INFORMATION
---------------------------------
There are 4 groups of distinct atoms

 Group   1 Type O   : 12s5p4d2f1g contracted to 6s4p3d1f1g pattern {711111/2111/211/2/1}
 Group   2 Type N   : 12s5p4d2f1g contracted to 6s4p3d1f1g pattern {711111/2111/211/2/1}
 Group   3 Type C   : 12s5p4d2f1g contracted to 6s4p3d1f1g pattern {711111/2111/211/2/1}
 Group   4 Type H   : 5s2p1d contracted to 3s1p1d pattern {311/2/1}

Atom   0O    basis set group =>   1
Atom   1O    basis set group =>   1
Atom   2O    basis set group =>   1
Atom   3O    basis set group =>   1
Atom   4N    basis set group =>   2
Atom   5N    basis set group =>   2
Atom   6N    basis set group =>   2
Atom   7N    basis set group =>   2
Atom   8C    basis set group =>   3
Atom   9C    basis set group =>   3
Atom  10C    basis set group =>   3
Atom  11C    basis set group =>   3
Atom  12C    basis set group =>   3
Atom  13C    basis set group =>   3
Atom  14C    basis set group =>   3
Atom  15C    basis set group =>   3
Atom  16C    basis set group =>   3
Atom  17C    basis set group =>   3
Atom  18H    basis set group =>   4
Atom  19H    basis set group =>   4
Atom  20H    basis set group =>   4
Atom  21H    basis set group =>   4
Atom  22H    basis set group =>   4
Atom  23H    basis set group =>   4
Atom  24H    basis set group =>   4
Atom  25H    basis set group =>   4
Atom  26H    basis set group =>   4
Atom  27H    basis set group =>   4
Atom  28H    basis set group =>   4
Atom  29H    basis set group =>   4
[1741102372.043990] [ohm:814495:0]        ib_iface.c:1059 UCX  ERROR ibv_create_cq(cqe=256) failed: Connection timed out
[1741102372.052561] [ohm:814500:0]        ib_iface.c:1059 UCX  ERROR ibv_create_cq(cqe=256) failed: Connection timed out
[1741102372.053612] [ohm:814496:0]        ib_iface.c:1059 UCX  ERROR ibv_create_cq(cqe=256) failed: Connection timed out
[1741102372.069130] [ohm:814498:0]        ib_iface.c:1059 UCX  ERROR ibv_create_cq(cqe=256) failed: Connection timed out
[1741102372.114136] [ohm:814522:0]        ib_iface.c:1059 UCX  ERROR ibv_create_cq(cqe=256) failed: Connection timed out
[1741102372.117891] [ohm:814516:0]        ib_iface.c:1059 UCX  ERROR ibv_create_cq(cqe=256) failed: Connection timed out
[1741102372.128991] [ohm:814560:0]        ib_iface.c:1059 UCX  ERROR ibv_create_cq(cqe=256) failed: Connection timed out
[1741102372.139662] [ohm:814510:0]        ib_iface.c:1059 UCX  ERROR ibv_create_cq(cqe=256) failed: Connection timed out
[1741102372.147324] [ohm:814513:0]        ib_iface.c:1059 UCX  ERROR ibv_create_cq(cqe=256) failed: Connection timed out
[1741102372.155177] [ohm:814515:0]        ib_iface.c:1059 UCX  ERROR ibv_create_cq(cqe=256) failed: Connection timed out
[1741102372.177168] [ohm:814505:0]        ib_iface.c:1059 UCX  ERROR ibv_create_cq(cqe=256) failed: Connection timed out
[1741102372.181307] [ohm:814511:0]        ib_iface.c:1059 UCX  ERROR ibv_create_cq(cqe=256) failed: Connection timed out
[1741102372.214927] [ohm:814517:0]        ib_iface.c:1059 UCX  ERROR ibv_create_cq(cqe=256) failed: Connection timed out
[1741102372.238874] [ohm:814508:0]        ib_iface.c:1059 UCX  ERROR ibv_create_cq(cqe=256) failed: Connection timed out
[1741102372.238857] [ohm:814518:0]        ib_iface.c:1059 UCX  ERROR ibv_create_cq(cqe=256) failed: Connection timed out
[1741102372.239364] [ohm:814544:0]        ib_iface.c:1059 UCX  ERROR ibv_create_cq(cqe=256) failed: Connection timed out
[1741102372.240580] [ohm:814523:0]        ib_iface.c:1059 UCX  ERROR ibv_create_cq(cqe=256) failed: Connection timed out
[1741102372.263366] [ohm:814531:0]        ib_iface.c:1059 UCX  ERROR ibv_create_cq(cqe=256) failed: Connection timed out
[1741102372.267968] [ohm:814509:0]        ib_iface.c:1059 UCX  ERROR ibv_create_cq(cqe=256) failed: Connection timed out
[1741102372.269349] [ohm:814497:0]        ib_iface.c:1059 UCX  ERROR ibv_create_cq(cqe=256) failed: Connection timed out
[1741102372.269627] [ohm:814621:0]        ib_iface.c:1059 UCX  ERROR ibv_create_cq(cqe=256) failed: Connection timed out
[1741102372.284495] [ohm:814512:0]        ib_iface.c:1059 UCX  ERROR ibv_create_cq(cqe=256) failed: Connection timed out
[1741102372.309232] [ohm:814577:0]        ib_iface.c:1059 UCX  ERROR ibv_create_cq(cqe=256) failed: Connection timed out
[1741102372.311251] [ohm:814610:0]        ib_iface.c:1059 UCX  ERROR ibv_create_cq(cqe=256) failed: Connection timed out
[1741102372.314985] [ohm:814526:0]        ib_iface.c:1059 UCX  ERROR ibv_create_cq(cqe=256) failed: Connection timed out
[1741102372.318330] [ohm:814627:0]        ib_iface.c:1059 UCX  ERROR ibv_create_cq(cqe=256) failed: Connection timed out
[1741102372.321217] [ohm:814534:0]        ib_iface.c:1059 UCX  ERROR ibv_create_cq(cqe=256) failed: Connection timed out
[1741102372.324881] [ohm:814548:0]        ib_iface.c:1059 UCX  ERROR ibv_create_cq(cqe=256) failed: Connection timed out
[1741102372.325441] [ohm:814615:0]        ib_iface.c:1059 UCX  ERROR ibv_create_cq(cqe=256) failed: Connection timed out
[1741102372.327728] [ohm:814557:0]        ib_iface.c:1059 UCX  ERROR ibv_create_cq(cqe=256) failed: Connection timed out
[1741102372.338932] [ohm:814597:0]        ib_iface.c:1059 UCX  ERROR ibv_create_cq(cqe=256) failed: Connection timed out
[1741102372.338996] [ohm:814634:0]        ib_iface.c:1059 UCX  ERROR ibv_create_cq(cqe=256) failed: Connection timed out
[1741102372.378310] [ohm:814599:0]        ib_iface.c:1059 UCX  ERROR ibv_create_cq(cqe=256) failed: Connection timed out
[1741102372.378860] [ohm:814503:0]        ib_iface.c:1059 UCX  ERROR ibv_create_cq(cqe=256) failed: Connection timed out
[1741102372.381769] [ohm:814506:0]        ib_iface.c:1059 UCX  ERROR ibv_create_cq(cqe=256) failed: Connection timed out
[1741102372.384574] [ohm:814604:0]        ib_iface.c:1059 UCX  ERROR ibv_create_cq(cqe=256) failed: Connection timed out
[1741102372.385435] [ohm:814507:0]        ib_iface.c:1059 UCX  ERROR ibv_create_cq(cqe=256) failed: Connection timed out
[1741102372.391207] [ohm:814591:0]        ib_iface.c:1059 UCX  ERROR ibv_create_cq(cqe=256) failed: Connection timed out
[1741102372.392807] [ohm:814642:0]        ib_iface.c:1059 UCX  ERROR ibv_create_cq(cqe=256) failed: Connection timed out
[1741102372.400046] [ohm:814550:0]        ib_iface.c:1059 UCX  ERROR ibv_create_cq(cqe=256) failed: Connection timed out
[1741102372.403157] [ohm:814519:0]        ib_iface.c:1059 UCX  ERROR ibv_create_cq(cqe=256) failed: Connection timed out
[1741102372.403366] [ohm:814573:0]        ib_iface.c:1059 UCX  ERROR ibv_create_cq(cqe=256) failed: Connection timed out
[1741102372.417759] [ohm:814613:0]        ib_iface.c:1059 UCX  ERROR ibv_create_cq(cqe=256) failed: Connection timed out
[1741102372.426299] [ohm:814600:0]        ib_iface.c:1059 UCX  ERROR ibv_create_cq(cqe=256) failed: Connection timed out
[1741102372.426520] [ohm:814580:0]        ib_iface.c:1059 UCX  ERROR ibv_create_cq(cqe=256) failed: Connection timed out
[1741102372.430571] [ohm:814575:0]        ib_iface.c:1059 UCX  ERROR ibv_create_cq(cqe=256) failed: Connection timed out
[1741102372.445865] [ohm:814586:0]        ib_iface.c:1059 UCX  ERROR ibv_create_cq(cqe=256) failed: Connection timed out
[1741102372.449937] [ohm:814502:0]        ib_iface.c:1059 UCX  ERROR ibv_create_cq(cqe=256) failed: Connection timed out
[1741102372.450620] [ohm:814539:0]        ib_iface.c:1059 UCX  ERROR ibv_create_cq(cqe=256) failed: Connection timed out
[1741102372.450874] [ohm:814588:0]        ib_iface.c:1059 UCX  ERROR ibv_create_cq(cqe=256) failed: Connection timed out
[1741102372.451715] [ohm:814541:0]        ib_iface.c:1059 UCX  ERROR ibv_create_cq(cqe=256) failed: Connection timed out
[1741102372.453067] [ohm:814608:0]        ib_iface.c:1059 UCX  ERROR ibv_create_cq(cqe=256) failed: Connection timed out
[1741102372.453678] [ohm:814521:0]        ib_iface.c:1059 UCX  ERROR ibv_create_cq(cqe=256) failed: Connection timed out
[1741102372.455553] [ohm:814552:0]        ib_iface.c:1059 UCX  ERROR ibv_create_cq(cqe=256) failed: Connection timed out
[1741102372.456169] [ohm:814566:0]        ib_iface.c:1059 UCX  ERROR ibv_create_cq(cqe=256) failed: Connection timed out
[1741102372.458757] [ohm:814501:0]        ib_iface.c:1059 UCX  ERROR ibv_create_cq(cqe=256) failed: Connection timed out
[1741102372.459545] [ohm:814504:0]        ib_iface.c:1059 UCX  ERROR ibv_create_cq(cqe=256) failed: Connection timed out
[1741102372.460462] [ohm:814570:0]        ib_iface.c:1059 UCX  ERROR ibv_create_cq(cqe=256) failed: Connection timed out
[1741102372.461477] [ohm:814545:0]        ib_iface.c:1059 UCX  ERROR ibv_create_cq(cqe=256) failed: Connection timed out
[1741102372.461847] [ohm:814617:0]        ib_iface.c:1059 UCX  ERROR ibv_create_cq(cqe=256) failed: Connection timed out
[1741102372.462964] [ohm:814499:0]        ib_iface.c:1059 UCX  ERROR ibv_create_cq(cqe=256) failed: Connection timed out
[1741102372.463122] [ohm:814632:0]        ib_iface.c:1059 UCX  ERROR ibv_create_cq(cqe=256) failed: Connection timed out
[1741102372.464237] [ohm:814639:0]        ib_iface.c:1059 UCX  ERROR ibv_create_cq(cqe=256) failed: Connection timed out
[1741102372.464639] [ohm:814514:0]        ib_iface.c:1059 UCX  ERROR ibv_create_cq(cqe=256) failed: Connection timed out


           ************************************************************
           *        Program running with 64 parallel MPI-processes    *
           *              working on a common directory               *
           ************************************************************
------------------------------------------------------------------------------
                             ORCA STARTUP CALCULATIONS
                           -- RI-GTO INTEGRALS CHOSEN --
------------------------------------------------------------------------------
------------------------------------------------------------------------------
                   ___                                                        
                  /   \      - P O W E R E D   B Y -                         
                 /     \                                                     
                 |  |  |   _    _      __       _____    __    __             
                 |  |  |  | |  | |    /  \     |  _  \  |  |  /  |          
                  \  \/   | |  | |   /    \    | | | |  |  | /  /          
                 / \  \   | |__| |  /  /\  \   | |_| |  |  |/  /          
                |  |  |   |  __  | /  /__\  \  |    /   |      \           
                |  |  |   | |  | | |   __   |  |    \   |  |\   \          
                \     /   | |  | | |  |  |  |  | |\  \  |  | \   \       
                 \___/    |_|  |_| |__|  |__|  |_| \__\ |__|  \__/        
                                                                              
                      - O R C A' S   B I G   F R I E N D -                    
                                      &                                       
                       - I N T E G R A L  F E E D E R -                       
                                                                              
 v1 FN, 2020, v2 2021, v3 2022-2024                                           
------------------------------------------------------------------------------


----------------------
SHARK INTEGRAL PACKAGE
----------------------

Number of atoms                             ...     30
Number of basis functions                   ...    882
Number of shells                            ...    322
Maximum angular momentum                    ...      3
Integral batch strategy                     ... SHARK/LIBINT Hybrid
RI-J (if used) integral strategy            ... SPLIT-RIJ (Revised 2003 algorithm where possible)
Printlevel                                  ...      1
Contraction scheme used                     ... SEGMENTED contraction
Prescreening option                         ... SCHWARTZ
   Thresh                                   ... 2.500e-11
   Tcut                                     ... 2.500e-12
   Tpresel                                  ... 2.500e-12 
Coulomb Range Separation                    ... NOT USED
Exchange Range Separation                   ... Long Range
   Mu parameter                             ... 3.000e-01
   Scaling (regular/separated)              ... 1.500e-01 8.500e-01
Multipole approximations                    ... NOT USED
Finite Nucleus Model                        ... NOT USED
CABS basis                                  ... NOT available
Auxiliary Coulomb fitting basis             ... AVAILABLE
   # of basis functions in Aux-J            ...   1014
   # of shells in Aux-J                     ...    330
   Maximum angular momentum in Aux-J        ...      4
Auxiliary J/K fitting basis                 ... NOT available
Auxiliary Correlation fitting basis         ... NOT available
Auxiliary 'external' fitting basis          ... NOT available

Checking pre-screening integrals            ... done (  0.0 sec) Dimension = 322
Check shell pair data                       ... done (  0.0 sec)
Shell pair information
Shell pair cut-off parameter TPreSel        ...   2.5e-12
Total number of shell pairs                 ...     52003
Shell pairs after pre-screening             ...     44738
Total number of primitive shell pairs       ...    129718
Primitive shell pairs kept                  ...     83647
          la=0 lb=0:   8676 shell pairs
          la=1 lb=0:  11849 shell pairs
          la=1 lb=1:   4095 shell pairs
          la=2 lb=0:   8046 shell pairs
          la=2 lb=1:   5566 shell pairs
          la=2 lb=2:   1906 shell pairs
          la=3 lb=0:   2031 shell pairs
          la=3 lb=1:   1448 shell pairs
          la=3 lb=2:    991 shell pairs
          la=3 lb=3:    130 shell pairs

Calculating one electron integrals          ... done (  0.2 sec)
Calculating RI/J V-Matrix + Cholesky decomp.... done (  0.1 sec)
Calculating Nuclear repulsion               ... done (  0.0 sec) ENN=   1427.347040301234 Eh

Diagonalization of the overlap matrix:
Smallest eigenvalue                        ... 4.349e-07
Time for diagonalization                   ...    0.124 sec
Threshold for overlap eigenvalues          ... 1.000e-07
Number of eigenvalues below threshold      ... 0

IMPORTANT:
Smallest eigenvalue of S below the DiffSThresh (1.000e-06) while
Thresh>1e-12 and/or TCut>1e-13! In order to avoid SCF convergence issues,
Thresh will be set to at least 1e-12 and TCut to at least 1e-13.
This can be turned off by adding %SCF DiffSThresh -1 END to the input.

Time for construction of square roots      ...    0.131 sec
Total time needed                          ...    0.270 sec

-------------------
DFT GRID GENERATION
-------------------

General Integration Accuracy     IntAcc      ... 4.388
Radial Grid Type                 RadialGrid  ... OptM3 with GC (2021)
Angular Grid (max. ang.)         AngularGrid ... 4 (Lebedev-302)
Angular grid pruning method      GridPruning ... 4 (adaptive)
Weight generation scheme         WeightScheme... mBecke (2022)
Basis function cutoff            BFCut       ... 1.0000e-11
Integration weight cutoff        WCut        ... 1.0000e-14
Partially contracted basis set               ... off
Rotationally invariant grid construction     ... off
Angular grids for H and He will be reduced by one unit
Diffuse basis detected: some atoms will have their outermost
                        angular grid increased by 1.

Total number of grid points                  ...   151772
Total number of batches                      ...     2386
Average number of points per batch           ...       63
Average number of grid points per atom       ...     5059

--------------------
COSX GRID GENERATION
--------------------

GRIDX 1
-------
General Integration Accuracy     IntAcc      ... 3.816
Radial Grid Type                 RadialGrid  ... OptM3 with GC (2021)
Angular Grid (max. ang.)         AngularGrid ... 1 (Lebedev-50)
Angular grid pruning method      GridPruning ... 4 (adaptive)
Weight generation scheme         WeightScheme... mBecke (2022)
Basis function cutoff            BFCut       ... 1.0000e-11
Integration weight cutoff        WCut        ... 1.0000e-14
Partially contracted basis set               ... on
Rotationally invariant grid construction     ... off
Angular grids for H and He will be reduced by one unit
Diffuse basis detected: some atoms will have their outermost
                        angular grid increased by 1.

Total number of grid points                  ...    18988
Total number of batches                      ...      165
Average number of points per batch           ...      115
Average number of grid points per atom       ...      633
UseSFitting                                  ... on

GRIDX 2
-------
General Integration Accuracy     IntAcc      ... 4.020
Radial Grid Type                 RadialGrid  ... OptM3 with GC (2021)
Angular Grid (max. ang.)         AngularGrid ... 2 (Lebedev-110)
Angular grid pruning method      GridPruning ... 4 (adaptive)
Weight generation scheme         WeightScheme... mBecke (2022)
Basis function cutoff            BFCut       ... 1.0000e-11
Integration weight cutoff        WCut        ... 1.0000e-14
Partially contracted basis set               ... on
Rotationally invariant grid construction     ... off
Angular grids for H and He will be reduced by one unit
Diffuse basis detected: some atoms will have their outermost
                        angular grid increased by 1.

Total number of grid points                  ...    45844
Total number of batches                      ...      373
Average number of points per batch           ...      122
Average number of grid points per atom       ...     1528
UseSFitting                                  ... on

GRIDX 3
-------
General Integration Accuracy     IntAcc      ... 4.338
Radial Grid Type                 RadialGrid  ... OptM3 with GC (2021)
Angular Grid (max. ang.)         AngularGrid ... 3 (Lebedev-194)
Angular grid pruning method      GridPruning ... 4 (adaptive)
Weight generation scheme         WeightScheme... mBecke (2022)
Basis function cutoff            BFCut       ... 1.0000e-11
Integration weight cutoff        WCut        ... 1.0000e-14
Partially contracted basis set               ... on
Rotationally invariant grid construction     ... off
Angular grids for H and He will be reduced by one unit
Diffuse basis detected: some atoms will have their outermost
                        angular grid increased by 1.

Total number of grid points                  ...   100890
Total number of batches                      ...      802
Average number of points per batch           ...      125
Average number of grid points per atom       ...     3363
UseSFitting                                  ... on
Initializing property integral containers    ... done (  0.0 sec)

SHARK setup successfully completed in   4.2 seconds

Maximum memory used throughout the entire STARTUP-calculation: 79.8 MB
[1741102378.626573] [ohm:814866:0]        ib_iface.c:1059 UCX  ERROR ibv_create_cq(cqe=256) failed: Connection timed out
[1741102378.633910] [ohm:814864:0]        ib_iface.c:1059 UCX  ERROR ibv_create_cq(cqe=256) failed: Connection timed out
[1741102378.636236] [ohm:814865:0]        ib_iface.c:1059 UCX  ERROR ibv_create_cq(cqe=256) failed: Connection timed out
[1741102378.728327] [ohm:814849:0]        ib_iface.c:1059 UCX  ERROR ibv_create_cq(cqe=256) failed: Connection timed out
[1741102378.735739] [ohm:814863:0]        ib_iface.c:1059 UCX  ERROR ibv_create_cq(cqe=256) failed: Connection timed out
[1741102378.748431] [ohm:814848:0]        ib_iface.c:1059 UCX  ERROR ibv_create_cq(cqe=256) failed: Connection timed out
[1741102378.758144] [ohm:814851:0]        ib_iface.c:1059 UCX  ERROR ibv_create_cq(cqe=256) failed: Connection timed out
[1741102378.760951] [ohm:814850:0]        ib_iface.c:1059 UCX  ERROR ibv_create_cq(cqe=256) failed: Connection timed out
[1741102378.763288] [ohm:814893:0]        ib_iface.c:1059 UCX  ERROR ibv_create_cq(cqe=256) failed: Connection timed out
[1741102378.808995] [ohm:814990:0]        ib_iface.c:1059 UCX  ERROR ibv_create_cq(cqe=256) failed: Connection timed out
[1741102378.813973] [ohm:814869:0]        ib_iface.c:1059 UCX  ERROR ibv_create_cq(cqe=256) failed: Connection timed out
[1741102378.815335] [ohm:814901:0]        ib_iface.c:1059 UCX  ERROR ibv_create_cq(cqe=256) failed: Connection timed out
[1741102378.832063] [ohm:814988:0]        ib_iface.c:1059 UCX  ERROR ibv_create_cq(cqe=256) failed: Connection timed out
[1741102378.876625] [ohm:814930:0]        ib_iface.c:1059 UCX  ERROR ibv_create_cq(cqe=256) failed: Connection timed out
[1741102378.888947] [ohm:814957:0]        ib_iface.c:1059 UCX  ERROR ibv_create_cq(cqe=256) failed: Connection timed out
[1741102378.901014] [ohm:814939:0]        ib_iface.c:1059 UCX  ERROR ibv_create_cq(cqe=256) failed: Connection timed out
[1741102378.901258] [ohm:814924:0]        ib_iface.c:1059 UCX  ERROR ibv_create_cq(cqe=256) failed: Connection timed out
[1741102378.904611] [ohm:814920:0]        ib_iface.c:1059 UCX  ERROR ibv_create_cq(cqe=256) failed: Connection timed out
[1741102378.906029] [ohm:814918:0]        ib_iface.c:1059 UCX  ERROR ibv_create_cq(cqe=256) failed: Connection timed out
[1741102378.927242] [ohm:815015:0]        ib_iface.c:1059 UCX  ERROR ibv_create_cq(cqe=256) failed: Connection timed out
[1741102378.933833] [ohm:814922:0]        ib_iface.c:1059 UCX  ERROR ibv_create_cq(cqe=256) failed: Connection timed out
[1741102378.939893] [ohm:814986:0]        ib_iface.c:1059 UCX  ERROR ibv_create_cq(cqe=256) failed: Connection timed out
[1741102378.948608] [ohm:814914:0]        ib_iface.c:1059 UCX  ERROR ibv_create_cq(cqe=256) failed: Connection timed out
[1741102378.952663] [ohm:814915:0]        ib_iface.c:1059 UCX  ERROR ibv_create_cq(cqe=256) failed: Connection timed out
[1741102378.958071] [ohm:814972:0]        ib_iface.c:1059 UCX  ERROR ibv_create_cq(cqe=256) failed: Connection timed out
[1741102378.958514] [ohm:814927:0]        ib_iface.c:1059 UCX  ERROR ibv_create_cq(cqe=256) failed: Connection timed out
[1741102378.971749] [ohm:814968:0]        ib_iface.c:1059 UCX  ERROR ibv_create_cq(cqe=256) failed: Connection timed out
[1741102378.981303] [ohm:814919:0]        ib_iface.c:1059 UCX  ERROR ibv_create_cq(cqe=256) failed: Connection timed out
[1741102378.981376] [ohm:815009:0]        ib_iface.c:1059 UCX  ERROR ibv_create_cq(cqe=256) failed: Connection timed out
[1741102378.986122] [ohm:814917:0]        ib_iface.c:1059 UCX  ERROR ibv_create_cq(cqe=256) failed: Connection timed out
[1741102378.987233] [ohm:814916:0]        ib_iface.c:1059 UCX  ERROR ibv_create_cq(cqe=256) failed: Connection timed out
[1741102378.989015] [ohm:814993:0]        ib_iface.c:1059 UCX  ERROR ibv_create_cq(cqe=256) failed: Connection timed out
[1741102378.992602] [ohm:815005:0]        ib_iface.c:1059 UCX  ERROR ibv_create_cq(cqe=256) failed: Connection timed out
[1741102378.992873] [ohm:814903:0]        ib_iface.c:1059 UCX  ERROR ibv_create_cq(cqe=256) failed: Connection timed out
[1741102378.993424] [ohm:814928:0]        ib_iface.c:1059 UCX  ERROR ibv_create_cq(cqe=256) failed: Connection timed out
[1741102379.000877] [ohm:814934:0]        ib_iface.c:1059 UCX  ERROR ibv_create_cq(cqe=256) failed: Connection timed out
[1741102379.001991] [ohm:814868:0]        ib_iface.c:1059 UCX  ERROR ibv_create_cq(cqe=256) failed: Connection timed out
[1741102379.003493] [ohm:814926:0]        ib_iface.c:1059 UCX  ERROR ibv_create_cq(cqe=256) failed: Connection timed out
[1741102379.007718] [ohm:815003:0]        ib_iface.c:1059 UCX  ERROR ibv_create_cq(cqe=256) failed: Connection timed out
[1741102379.010538] [ohm:814982:0]        ib_iface.c:1059 UCX  ERROR ibv_create_cq(cqe=256) failed: Connection timed out
[1741102379.020927] [ohm:814925:0]        ib_iface.c:1059 UCX  ERROR ibv_create_cq(cqe=256) failed: Connection timed out
[1741102379.021526] [ohm:814921:0]        ib_iface.c:1059 UCX  ERROR ibv_create_cq(cqe=256) failed: Connection timed out
[1741102379.026117] [ohm:814950:0]        ib_iface.c:1059 UCX  ERROR ibv_create_cq(cqe=256) failed: Connection timed out
[1741102379.039372] [ohm:814961:0]        ib_iface.c:1059 UCX  ERROR ibv_create_cq(cqe=256) failed: Connection timed out
[1741102379.049746] [ohm:814929:0]        ib_iface.c:1059 UCX  ERROR ibv_create_cq(cqe=256) failed: Connection timed out
[1741102379.057095] [ohm:814976:0]        ib_iface.c:1059 UCX  ERROR ibv_create_cq(cqe=256) failed: Connection timed out
[1741102379.061527] [ohm:814951:0]        ib_iface.c:1059 UCX  ERROR ibv_create_cq(cqe=256) failed: Connection timed out
[1741102379.063139] [ohm:814933:0]        ib_iface.c:1059 UCX  ERROR ibv_create_cq(cqe=256) failed: Connection timed out
[1741102379.073612] [ohm:814923:0]        ib_iface.c:1059 UCX  ERROR ibv_create_cq(cqe=256) failed: Connection timed out
[1741102379.077548] [ohm:814892:0]        ib_iface.c:1059 UCX  ERROR ibv_create_cq(cqe=256) failed: Connection timed out
[1741102379.081740] [ohm:814980:0]        ib_iface.c:1059 UCX  ERROR ibv_create_cq(cqe=256) failed: Connection timed out
[1741102379.083466] [ohm:814867:0]        ib_iface.c:1059 UCX  ERROR ibv_create_cq(cqe=256) failed: Connection timed out
[1741102379.086058] [ohm:814909:0]        ib_iface.c:1059 UCX  ERROR ibv_create_cq(cqe=256) failed: Connection timed out
[1741102379.086280] [ohm:814910:0]        ib_iface.c:1059 UCX  ERROR ibv_create_cq(cqe=256) failed: Connection timed out
[1741102379.086711] [ohm:814945:0]        ib_iface.c:1059 UCX  ERROR ibv_create_cq(cqe=256) failed: Connection timed out
[1741102379.087029] [ohm:814942:0]        ib_iface.c:1059 UCX  ERROR ibv_create_cq(cqe=256) failed: Connection timed out
[1741102379.089616] [ohm:815020:0]        ib_iface.c:1059 UCX  ERROR ibv_create_cq(cqe=256) failed: Connection timed out
[1741102379.090016] [ohm:814995:0]        ib_iface.c:1059 UCX  ERROR ibv_create_cq(cqe=256) failed: Connection timed out
[1741102379.091994] [ohm:814965:0]        ib_iface.c:1059 UCX  ERROR ibv_create_cq(cqe=256) failed: Connection timed out
[1741102379.092656] [ohm:815000:0]        ib_iface.c:1059 UCX  ERROR ibv_create_cq(cqe=256) failed: Connection timed out
[1741102379.093038] [ohm:814895:0]        ib_iface.c:1059 UCX  ERROR ibv_create_cq(cqe=256) failed: Connection timed out
[1741102379.093695] [ohm:815013:0]        ib_iface.c:1059 UCX  ERROR ibv_create_cq(cqe=256) failed: Connection timed out
[1741102379.094950] [ohm:814896:0]        ib_iface.c:1059 UCX  ERROR ibv_create_cq(cqe=256) failed: Connection timed out
[1741102379.101404] [ohm:814862:0]        ib_iface.c:1059 UCX  ERROR ibv_create_cq(cqe=256) failed: Connection timed out


           ************************************************************
           *        Program running with 64 parallel MPI-processes    *
           *              working on a common directory               *
           ************************************************************
-------------------------------------------------------------------------------
                                 ORCA GUESS
                   Start orbitals & Density for SCF / CASSCF
-------------------------------------------------------------------------------

------------
SCF SETTINGS
------------
Hamiltonian:
 Density Functional     Method          .... DFT(GTOs)
  Functional kind                       .... Exchange-Correlation
  Functional name                       .... wB97M-V exchange-correlation functional
  Functional family                     .... Hybrid MGGA
  Functional refs                              
    [ 0] N. Mardirossian and M. Head-Gordon.,  J. Chem. Phys. 144, 214110 (2016), doi: 10.1063/1.4952647
  Fraction of HF Exchange (short range) .... 0.1500
  Fraction of HF Exchange (long range)  .... 1.0000
  Range separation parameter mu         .... 0.3000
  Functional external parameters        .... 17
    Parameter  0 _cx00      =  8.500000e-01 : u^00 coefficient for exchange
    Parameter  1 _cx01      =  1.007000e+00 : u^01 coefficient for exchange
    Parameter  2 _cx10      =  2.590000e-01 : u^10 coefficient for exchange
    Parameter  3 _css00     =  4.430000e-01 : u^00 coefficient for same-spin correlation
    Parameter  4 _css04     = -1.437000e+00 : u^04 coefficient for same-spin correlation
    Parameter  5 _css10     = -4.535000e+00 : u^10 coefficient for same-spin correlation
    Parameter  6 _css20     = -3.390000e+00 : u^20 coefficient for same-spin correlation
    Parameter  7 _css43     =  4.278000e+00 : u^43 coefficient for same-spin correlation
    Parameter  8 _cos00     =  1.000000e+00 : u^00 coefficient for opposite-spin correlation
    Parameter  9 _cos10     =  1.358000e+00 : u^10 coefficient for opposite-spin correlation
    Parameter 10 _cos20     =  2.924000e+00 : u^20 coefficient for opposite-spin correlation
    Parameter 11 _cos21     = -8.812000e+00 : u^21 coefficient for opposite-spin correlation
    Parameter 12 _cos60     = -1.390000e+00 : u^60 coefficient for opposite-spin correlation
    Parameter 13 _cos61     =  9.142000e+00 : u^61 coefficient for opposite-spin correlation
    Parameter 14 _alpha     =  1.000000e+00 : fraction of HF exchange
    Parameter 15 _beta      = -8.500000e-01 : fraction of short-range exchange
    Parameter 16 _omega     =  3.000000e-01 : range-separation constant
 Long-range corrected/Screened/Range-Separated Hybrid DFT is turned on
   Amount of maximum screened exact exchange              ....  0.850000
   Range separation parameter mu (erf(mu*r12)/r12)        ....  0.300000
 RI-approximation to the Coulomb term is turned on
   Number of AuxJ basis functions       .... 1014
   RIJ-COSX (HFX calculated with COS-X)).... on


General Settings:
 Integral files         IntName         .... orca
 Hartree-Fock type      HFTyp           .... UHF
 Total Charge           Charge          ....    0
 Multiplicity           Mult            ....    3
 Number of Electrons    NEL             ....  132
 Basis Dimension        Dim             ....  882
 Nuclear Repulsion      ENuc            ....   1427.3470403012 Eh

Convergence Acceleration:
 AO-DIIS                CNVDIIS         .... on
   Start iteration      DIISMaxIt       ....    12
   Startup error        DIISStart       ....  0.200000
   # of expansion vecs  DIISMaxEq       ....     5
   Bias factor          DIISBfac        ....   1.050
   Max. coefficient     DIISMaxC        ....  10.000
 MO-DIIS                CNVKDIIS        .... off
 Trust-Rad. Augm. Hess. CNVTRAH         .... auto
   Auto Start mean grad. ratio tolernc. ....  1.125000
   Auto Start start iteration           ....    50
   Auto Start num. interpolation iter.  ....    10
   Max. Number of Micro iterations      ....    24
   Max. Number of Macro iterations      .... Maxiter - #DIIS iter
   Number of Davidson start vectors     ....     2
   Converg. threshold    (grad. norm)   ....   1.000e-05
   Grad. Scal. Fac. for Micro threshold ....   0.100
   Minimum threshold for Micro iter.    ....   1.000e-02
   NR start threshold (gradient norm)   ....   1.000e-04
   Initial trust radius                 ....   0.400
   Minimum AH scaling param. (alpha)    ....   1.000
   Maximum AH scaling param. (alpha)    .... 1000.000
   Quad. conv. algorithm                .... NR
   White noise on init. David. guess    .... on
   Maximum white noise                  ....   0.010
   Pseudo random numbers                .... off
   Inactive MOs                         .... canonical
   Orbital update algorithm             .... Taylor
   Preconditioner                       .... Diag
   Full preconditioner red. dimension   ....   250
 SOSCF                  CNVSOSCF        .... on
   Start iteration      SOSCFMaxIt      ....   150
   Startup grad/error   SOSCFStart      ....  0.003300
   Hessian update       SOSCFHessUp     .... L-BFGS
 Level Shifting         CNVShift        .... on
   Level shift para.    LevelShift      ....    0.2500
   Turn off err/grad.   ShiftErr        ....    0.0010
 Zerner damping         CNVZerner       .... off
 Static damping         CNVDamp         .... on
   Fraction old density DampFac         ....    0.7000
   Max. Damping (<1)    DampMax         ....    0.9800
   Min. Damping (>=0)   DampMin         ....    0.0000
   Turn off err/grad.   DampErr         ....    0.1000

SCF Procedure:
 Maximum # iterations   MaxIter         ....   125
 SCF integral mode      SCFMode         .... Direct
   Integral package                     .... SHARK and LIBINT hybrid scheme
 Reset frequency        DirectResetFreq ....    20
 Integral Threshold     Thresh          ....  1.000e-12 Eh
 Primitive CutOff       TCut            ....  1.000e-13 Eh

Convergence Tolerance:
 Convergence Check Mode ConvCheckMode   .... Total+1el-Energy
 Convergence forced     ConvForced      .... 1
 Energy Change          TolE            ....  1.000e-08 Eh
 1-El. energy change                    ....  1.000e-05 Eh
 Orbital Gradient       TolG            ....  1.000e-05
 Orbital Rotation angle TolX            ....  1.000e-05
 DIIS Error             TolErr          ....  5.000e-07

------------------------------
INITIAL GUESS: MODEL POTENTIAL
------------------------------
Loading Hartree-Fock densities                     ... done
Calculating cut-offs                               ... done
Initializing the effective Hamiltonian             ... done
Setting up the integral package (SHARK)            ... done
Starting the Coulomb interaction                   ... done (   0.1 sec)
Making the grid                                    ... done (   0.2 sec)
Mapping shells                                     ... done
Starting the XC term evaluation                    ... done (   0.1 sec)
  promolecular density results
     # of electrons  =    131.994690006
     EX              =   -113.591474340
     EC              =     -4.499646587
     EX+EC           =   -118.091120927
Transforming the Hamiltonian                       ... done (   0.1 sec)
Diagonalizing the Hamiltonian                      ... done (   0.1 sec)
Back transforming the eigenvectors                 ... done (   0.1 sec)
Now organizing SCF variables                       ... done
                      ------------------
                      INITIAL GUESS DONE (   1.1 sec)
                      ------------------
             **** ENERGY FILE WAS UPDATED (orca.en.tmp) ****
Finished Guess after   3.7 sec
Maximum memory used throughout the entire GUESS-calculation: 72.1 MB
[1741102383.013628] [ohm:815211:0]        ib_iface.c:1059 UCX  ERROR ibv_create_cq(cqe=256) failed: Connection timed out
[1741102383.028909] [ohm:815225:0]        ib_iface.c:1059 UCX  ERROR ibv_create_cq(cqe=256) failed: Connection timed out
[1741102383.034111] [ohm:815222:0]        ib_iface.c:1059 UCX  ERROR ibv_create_cq(cqe=256) failed: Connection timed out
[1741102383.039220] [ohm:815229:0]        ib_iface.c:1059 UCX  ERROR ibv_create_cq(cqe=256) failed: Connection timed out
[1741102383.042643] [ohm:815227:0]        ib_iface.c:1059 UCX  ERROR ibv_create_cq(cqe=256) failed: Connection timed out
[1741102383.043356] [ohm:815346:0]        ib_iface.c:1059 UCX  ERROR ibv_create_cq(cqe=256) failed: Connection timed out
[1741102383.046976] [ohm:815319:0]        ib_iface.c:1059 UCX  ERROR ibv_create_cq(cqe=256) failed: Connection timed out
[1741102383.048018] [ohm:815213:0]        ib_iface.c:1059 UCX  ERROR ibv_create_cq(cqe=256) failed: Connection timed out
[1741102383.062800] [ohm:815210:0]        ib_iface.c:1059 UCX  ERROR ibv_create_cq(cqe=256) failed: Connection timed out
[1741102383.098577] [ohm:815236:0]        ib_iface.c:1059 UCX  ERROR ibv_create_cq(cqe=256) failed: Connection timed out
[1741102383.098567] [ohm:815241:0]        ib_iface.c:1059 UCX  ERROR ibv_create_cq(cqe=256) failed: Connection timed out
[1741102383.102531] [ohm:815239:0]        ib_iface.c:1059 UCX  ERROR ibv_create_cq(cqe=256) failed: Connection timed out
[1741102383.111220] [ohm:815217:0]        ib_iface.c:1059 UCX  ERROR ibv_create_cq(cqe=256) failed: Connection timed out
[1741102383.116421] [ohm:815219:0]        ib_iface.c:1059 UCX  ERROR ibv_create_cq(cqe=256) failed: Connection timed out
[1741102383.116584] [ohm:815216:0]        ib_iface.c:1059 UCX  ERROR ibv_create_cq(cqe=256) failed: Connection timed out
[1741102383.122379] [ohm:815214:0]        ib_iface.c:1059 UCX  ERROR ibv_create_cq(cqe=256) failed: Connection timed out
[1741102383.130417] [ohm:815230:0]        ib_iface.c:1059 UCX  ERROR ibv_create_cq(cqe=256) failed: Connection timed out
[1741102383.149735] [ohm:815226:0]        ib_iface.c:1059 UCX  ERROR ibv_create_cq(cqe=256) failed: Connection timed out
[1741102383.149885] [ohm:815304:0]        ib_iface.c:1059 UCX  ERROR ibv_create_cq(cqe=256) failed: Connection timed out
[1741102383.151357] [ohm:815224:0]        ib_iface.c:1059 UCX  ERROR ibv_create_cq(cqe=256) failed: Connection timed out
[1741102383.154115] [ohm:815310:0]        ib_iface.c:1059 UCX  ERROR ibv_create_cq(cqe=256) failed: Connection timed out
[1741102383.164578] [ohm:815299:0]        ib_iface.c:1059 UCX  ERROR ibv_create_cq(cqe=256) failed: Connection timed out
[1741102383.195655] [ohm:815327:0]        ib_iface.c:1059 UCX  ERROR ibv_create_cq(cqe=256) failed: Connection timed out
[1741102383.201848] [ohm:815232:0]        ib_iface.c:1059 UCX  ERROR ibv_create_cq(cqe=256) failed: Connection timed out
[1741102383.214248] [ohm:815245:0]        ib_iface.c:1059 UCX  ERROR ibv_create_cq(cqe=256) failed: Connection timed out
[1741102383.214681] [ohm:815315:0]        ib_iface.c:1059 UCX  ERROR ibv_create_cq(cqe=256) failed: Connection timed out
[1741102383.230982] [ohm:815228:0]        ib_iface.c:1059 UCX  ERROR ibv_create_cq(cqe=256) failed: Connection timed out
[1741102383.239754] [ohm:815255:0]        ib_iface.c:1059 UCX  ERROR ibv_create_cq(cqe=256) failed: Connection timed out
[1741102383.241355] [ohm:815335:0]        ib_iface.c:1059 UCX  ERROR ibv_create_cq(cqe=256) failed: Connection timed out
[1741102383.252040] [ohm:815271:0]        ib_iface.c:1059 UCX  ERROR ibv_create_cq(cqe=256) failed: Connection timed out
[1741102383.255990] [ohm:815218:0]        ib_iface.c:1059 UCX  ERROR ibv_create_cq(cqe=256) failed: Connection timed out
[1741102383.257256] [ohm:815333:0]        ib_iface.c:1059 UCX  ERROR ibv_create_cq(cqe=256) failed: Connection timed out
[1741102383.258478] [ohm:815324:0]        ib_iface.c:1059 UCX  ERROR ibv_create_cq(cqe=256) failed: Connection timed out
[1741102383.262997] [ohm:815258:0]        ib_iface.c:1059 UCX  ERROR ibv_create_cq(cqe=256) failed: Connection timed out
[1741102383.272298] [ohm:815262:0]        ib_iface.c:1059 UCX  ERROR ibv_create_cq(cqe=256) failed: Connection timed out
[1741102383.272600] [ohm:815235:0]        ib_iface.c:1059 UCX  ERROR ibv_create_cq(cqe=256) failed: Connection timed out
[1741102383.284370] [ohm:815291:0]        ib_iface.c:1059 UCX  ERROR ibv_create_cq(cqe=256) failed: Connection timed out
[1741102383.285035] [ohm:815352:0]        ib_iface.c:1059 UCX  ERROR ibv_create_cq(cqe=256) failed: Connection timed out
[1741102383.286867] [ohm:815322:0]        ib_iface.c:1059 UCX  ERROR ibv_create_cq(cqe=256) failed: Connection timed out
[1741102383.293799] [ohm:815249:0]        ib_iface.c:1059 UCX  ERROR ibv_create_cq(cqe=256) failed: Connection timed out
[1741102383.299044] [ohm:815341:0]        ib_iface.c:1059 UCX  ERROR ibv_create_cq(cqe=256) failed: Connection timed out
[1741102383.300106] [ohm:815287:0]        ib_iface.c:1059 UCX  ERROR ibv_create_cq(cqe=256) failed: Connection timed out
[1741102383.301405] [ohm:815223:0]        ib_iface.c:1059 UCX  ERROR ibv_create_cq(cqe=256) failed: Connection timed out
[1741102383.307429] [ohm:815231:0]        ib_iface.c:1059 UCX  ERROR ibv_create_cq(cqe=256) failed: Connection timed out
[1741102383.317841] [ohm:815296:0]        ib_iface.c:1059 UCX  ERROR ibv_create_cq(cqe=256) failed: Connection timed out
[1741102383.318883] [ohm:815212:0]        ib_iface.c:1059 UCX  ERROR ibv_create_cq(cqe=256) failed: Connection timed out
[1741102383.318927] [ohm:815348:0]        ib_iface.c:1059 UCX  ERROR ibv_create_cq(cqe=256) failed: Connection timed out
[1741102383.323654] [ohm:815292:0]        ib_iface.c:1059 UCX  ERROR ibv_create_cq(cqe=256) failed: Connection timed out
[1741102383.324466] [ohm:815281:0]        ib_iface.c:1059 UCX  ERROR ibv_create_cq(cqe=256) failed: Connection timed out
[1741102383.325569] [ohm:815276:0]        ib_iface.c:1059 UCX  ERROR ibv_create_cq(cqe=256) failed: Connection timed out
[1741102383.326973] [ohm:815317:0]        ib_iface.c:1059 UCX  ERROR ibv_create_cq(cqe=256) failed: Connection timed out
[1741102383.327425] [ohm:815283:0]        ib_iface.c:1059 UCX  ERROR ibv_create_cq(cqe=256) failed: Connection timed out
[1741102383.330626] [ohm:815266:0]        ib_iface.c:1059 UCX  ERROR ibv_create_cq(cqe=256) failed: Connection timed out
[1741102383.333420] [ohm:815220:0]        ib_iface.c:1059 UCX  ERROR ibv_create_cq(cqe=256) failed: Connection timed out
[1741102383.335018] [ohm:815340:0]        ib_iface.c:1059 UCX  ERROR ibv_create_cq(cqe=256) failed: Connection timed out
[1741102383.335439] [ohm:815328:0]        ib_iface.c:1059 UCX  ERROR ibv_create_cq(cqe=256) failed: Connection timed out
[1741102383.337430] [ohm:815269:0]        ib_iface.c:1059 UCX  ERROR ibv_create_cq(cqe=256) failed: Connection timed out
[1741102383.337569] [ohm:815215:0]        ib_iface.c:1059 UCX  ERROR ibv_create_cq(cqe=256) failed: Connection timed out
[1741102383.338370] [ohm:815234:0]        ib_iface.c:1059 UCX  ERROR ibv_create_cq(cqe=256) failed: Connection timed out
[1741102383.338617] [ohm:815233:0]        ib_iface.c:1059 UCX  ERROR ibv_create_cq(cqe=256) failed: Connection timed out
[1741102383.339411] [ohm:815221:0]        ib_iface.c:1059 UCX  ERROR ibv_create_cq(cqe=256) failed: Connection timed out
[1741102383.339974] [ohm:815274:0]        ib_iface.c:1059 UCX  ERROR ibv_create_cq(cqe=256) failed: Connection timed out
[1741102383.340475] [ohm:815238:0]        ib_iface.c:1059 UCX  ERROR ibv_create_cq(cqe=256) failed: Connection timed out
[1741102383.340747] [ohm:815307:0]        ib_iface.c:1059 UCX  ERROR ibv_create_cq(cqe=256) failed: Connection timed out


           ************************************************************
           *        Program running with 64 parallel MPI-processes    *
           *              working on a common directory               *
           ************************************************************

-------------------------------------------------------------------------------------------
                                      ORCA LEAN-SCF
                              memory conserving SCF solver
-------------------------------------------------------------------------------------------

----------------------------------------D-I-I-S--------------------------------------------
Iteration    Energy (Eh)           Delta-E    RMSDP     MaxDP     DIISErr   Damp  Time(sec)
-------------------------------------------------------------------------------------------
               ***  Starting incremental Fock matrix formation  ***
    1    -908.0981354968243977     0.00e+00  1.86e-03  3.49e-01  1.50e-01  0.700   7.7
    2    -908.3726009044989951    -2.74e-01  1.49e-03  2.53e-01  7.11e-02  0.700   6.5
                               ***Turning on AO-DIIS***
    3    -908.4933065497771167    -1.21e-01  1.08e-03  1.82e-01  3.02e-02  0.700   5.6
    4    -908.5675953286031472    -7.43e-02  2.51e-03  3.91e-01  1.90e-02  0.000   5.6
    5    -908.7345212707064093    -1.67e-01  2.60e-04  4.79e-02  6.30e-03  0.000   5.8
                              *** Initializing SOSCF ***
---------------------------------------S-O-S-C-F--------------------------------------
Iteration    Energy (Eh)           Delta-E    RMSDP     MaxDP     MaxGrad    Time(sec)
--------------------------------------------------------------------------------------
    6    -908.7358434346028844    -1.32e-03  1.43e-04  3.68e-02  3.10e-03     6.4
               *** Restarting incremental Fock matrix formation ***
    7    -908.7363695330373048    -5.26e-04  2.42e-04  3.50e-02  3.91e-03     7.3
    8    -908.7367589303353270    -3.89e-04  2.77e-04  6.75e-02  2.05e-03     6.5
    9    -908.7369091350187773    -1.50e-04  1.27e-04  8.88e-03  8.96e-04     6.6
   10    -908.7369799247508126    -7.08e-05  3.37e-05  9.20e-03  3.97e-04     6.3
   11    -908.7369924378267569    -1.25e-05  1.07e-05  1.78e-03  1.66e-04     6.2
   12    -908.7369954574164694    -3.02e-06  7.38e-06  1.22e-03  1.46e-04     6.0
   13    -908.7369971475218335    -1.69e-06  5.04e-06  8.50e-04  4.60e-05     6.0
   14    -908.7369973207364637    -1.73e-07  1.94e-06  5.45e-04  2.37e-05     5.9
   15    -908.7369973571753690    -3.64e-08  2.12e-06  5.11e-04  1.54e-05     5.6
   16    -908.7369973701902381    -1.30e-08  1.43e-06  3.21e-04  3.18e-06     5.5
   17    -908.7369974125604131    -4.24e-08  1.99e-06  5.43e-04  2.81e-06     5.3
   18    -908.7369973666050100     4.60e-08  2.31e-06  5.98e-04  1.20e-06     5.3
                  *** Gradient check signals convergence ***

               *****************************************************
               *                     SUCCESS                       *
               *           SCF CONVERGED AFTER  18 CYCLES          *
               *****************************************************

Recomputing exchange energy using gridx3       ... done (    7.903 sec)
Old exchange energy                            :    -35.054846853 Eh
New exchange energy                            :    -35.054841856 Eh
Exchange energy change after final integration :      0.000004997 Eh
Total energy after final integration           :   -908.736992370 Eh
             **** ENERGY FILE WAS UPDATED (orca.en.tmp) ****

----------------
TOTAL SCF ENERGY
----------------

Total Energy       :       -908.73699236994366 Eh          -24727.99071 eV

Components:
Nuclear Repulsion  :       1427.34704030123385 Eh           38840.08756 eV
Electronic Energy  :      -2336.08403766783886 Eh          -63568.07840 eV
One Electron Energy:      -4071.34946689684784 Eh         -110787.05130 eV
Two Electron Energy:       1735.26542922900899 Eh           47218.97290 eV

Virial components:
Potential Energy   :      -1814.81623626884925 Eh          -49383.66041 eV
Kinetic Energy     :        906.07924389890559 Eh           24655.66970 eV
Virial Ratio       :          2.00293324065079

DFT components:
N(Alpha)           :       66.999845740221 electrons
N(Beta)            :       64.999884248315 electrons
N(Total)           :      131.999729988536 electrons
E(XC)              :      -86.323375586883 Eh       

---------------
SCF CONVERGENCE
---------------

  Last Energy change         ...   -4.5955e-08  Tolerance :   1.0000e-08
  Last MAX-Density change    ...    5.9809e-04  Tolerance :   1.0000e-07
  Last RMS-Density change    ...    2.3090e-06  Tolerance :   5.0000e-09
  Last DIIS Error            ...    3.0985e-03  Tolerance :   5.0000e-07
  Last Orbital Gradient      ...    1.2041e-06  Tolerance :   1.0000e-05
  Last Orbital Rotation      ...    5.1755e-06  Tolerance :   1.0000e-05


----------------------
UHF SPIN CONTAMINATION
----------------------

Warning: in a DFT calculation there is little theoretical justification to 
         calculate <S**2> as in Hartree-Fock theory. We will do it anyways
         but you should keep in mind that the values have only limited relevance

Expectation value of <S**2>     :     2.013839
Ideal value S*(S+1) for S=1.0   :     2.000000
Deviation                       :     0.013839

----------------
ORBITAL ENERGIES
----------------
                 SPIN UP ORBITALS
  NO   OCC          E(Eh)            E(eV) 
   0   1.0000     -19.334813      -526.1270 
   1   1.0000     -19.334430      -526.1166 
   2   1.0000     -19.330992      -526.0230 
   3   1.0000     -19.317585      -525.6582 
   4   1.0000     -14.572661      -396.5423 
   5   1.0000     -14.565693      -396.3527 
   6   1.0000     -14.565392      -396.3445 
   7   1.0000     -14.558087      -396.1457 
   8   1.0000     -10.517048      -286.1834 
   9   1.0000     -10.499656      -285.7102 
  10   1.0000     -10.483154      -285.2611 
  11   1.0000     -10.483117      -285.2601 
  12   1.0000     -10.453172      -284.4453 
  13   1.0000     -10.443573      -284.1841 
  14   1.0000     -10.424684      -283.6701 
  15   1.0000     -10.417111      -283.4640 
  16   1.0000     -10.370795      -282.2037 
  17   1.0000     -10.366710      -282.0925 
  18   1.0000      -1.233618       -33.5685 
  19   1.0000      -1.223366       -33.2895 
  20   1.0000      -1.185547       -32.2604 
  21   1.0000      -1.181911       -32.1614 
  22   1.0000      -1.135734       -30.9049 
  23   1.0000      -1.109587       -30.1934 
  24   1.0000      -1.067246       -29.0412 
  25   1.0000      -1.055035       -28.7090 
  26   1.0000      -0.990461       -26.9518 
  27   1.0000      -0.960871       -26.1466 
  28   1.0000      -0.899620       -24.4799 
  29   1.0000      -0.853154       -23.2155 
  30   1.0000      -0.828706       -22.5502 
  31   1.0000      -0.807709       -21.9789 
  32   1.0000      -0.790450       -21.5092 
  33   1.0000      -0.782061       -21.2810 
  34   1.0000      -0.707237       -19.2449 
  35   1.0000      -0.700331       -19.0570 
  36   1.0000      -0.692733       -18.8502 
  37   1.0000      -0.687958       -18.7203 
  38   1.0000      -0.657338       -17.8871 
  39   1.0000      -0.640748       -17.4356 
  40   1.0000      -0.631228       -17.1766 
  41   1.0000      -0.611953       -16.6521 
  42   1.0000      -0.591198       -16.0873 
  43   1.0000      -0.586911       -15.9707 
  44   1.0000      -0.578124       -15.7316 
  45   1.0000      -0.575840       -15.6694 
  46   1.0000      -0.570931       -15.5358 
  47   1.0000      -0.567459       -15.4413 
  48   1.0000      -0.562369       -15.3029 
  49   1.0000      -0.555787       -15.1237 
  50   1.0000      -0.552067       -15.0225 
  51   1.0000      -0.533602       -14.5200 
  52   1.0000      -0.530235       -14.4284 
  53   1.0000      -0.525541       -14.3007 
  54   1.0000      -0.519291       -14.1306 
  55   1.0000      -0.512796       -13.9539 
  56   1.0000      -0.493220       -13.4212 
  57   1.0000      -0.424682       -11.5562 
  58   1.0000      -0.423911       -11.5352 
  59   1.0000      -0.412262       -11.2182 
  60   1.0000      -0.407601       -11.0914 
  61   1.0000      -0.405097       -11.0233 
  62   1.0000      -0.397020       -10.8035 
  63   1.0000      -0.391496       -10.6532 
  64   1.0000      -0.386105       -10.5065 
  65   1.0000      -0.353707        -9.6248 
  66   1.0000      -0.323523        -8.8035 
  67   0.0000       0.005039         0.1371 
  68   0.0000       0.028149         0.7660 
  69   0.0000       0.031187         0.8486 
  70   0.0000       0.034733         0.9451 
  71   0.0000       0.052315         1.4236 
  72   0.0000       0.054932         1.4948 
  73   0.0000       0.056667         1.5420 
  74   0.0000       0.062222         1.6932 
  75   0.0000       0.064043         1.7427 
  76   0.0000       0.066238         1.8024 
  77   0.0000       0.075284         2.0486 

                 SPIN DOWN ORBITALS
  NO   OCC          E(Eh)            E(eV) 
   0   1.0000     -19.334381      -526.1153 
   1   1.0000     -19.330704      -526.0152 
   2   1.0000     -19.326991      -525.9142 
   3   1.0000     -19.317563      -525.6576 
   4   1.0000     -14.572590      -396.5403 
   5   1.0000     -14.565426      -396.3454 
   6   1.0000     -14.564915      -396.3315 
   7   1.0000     -14.557327      -396.1250 
   8   1.0000     -10.517087      -286.1845 
   9   1.0000     -10.499689      -285.7111 
  10   1.0000     -10.484194      -285.2894 
  11   1.0000     -10.484130      -285.2877 
  12   1.0000     -10.452359      -284.4232 
  13   1.0000     -10.443368      -284.1785 
  14   1.0000     -10.413228      -283.3583 
  15   1.0000     -10.405952      -283.1604 
  16   1.0000     -10.371185      -282.2143 
  17   1.0000     -10.367288      -282.1082 
  18   1.0000      -1.233241       -33.5582 
  19   1.0000      -1.222750       -33.2727 
  20   1.0000      -1.179452       -32.0945 
  21   1.0000      -1.176758       -32.0212 
  22   1.0000      -1.133561       -30.8458 
  23   1.0000      -1.108056       -30.1517 
  24   1.0000      -1.064876       -28.9767 
  25   1.0000      -1.053114       -28.6567 
  26   1.0000      -0.977842       -26.6084 
  27   1.0000      -0.943442       -25.6723 
  28   1.0000      -0.893656       -24.3176 
  29   1.0000      -0.848308       -23.0836 
  30   1.0000      -0.820168       -22.3179 
  31   1.0000      -0.802988       -21.8504 
  32   1.0000      -0.788351       -21.4521 
  33   1.0000      -0.779861       -21.2211 
  34   1.0000      -0.703636       -19.1469 
  35   1.0000      -0.693634       -18.8748 
  36   1.0000      -0.686259       -18.6741 
  37   1.0000      -0.681695       -18.5499 
  38   1.0000      -0.649164       -17.6646 
  39   1.0000      -0.637599       -17.3499 
  40   1.0000      -0.622722       -16.9451 
  41   1.0000      -0.606361       -16.4999 
  42   1.0000      -0.586072       -15.9478 
  43   1.0000      -0.581452       -15.8221 
  44   1.0000      -0.572218       -15.5708 
  45   1.0000      -0.568760       -15.4768 
  46   1.0000      -0.561816       -15.2878 
  47   1.0000      -0.561498       -15.2791 
  48   1.0000      -0.557114       -15.1599 
  49   1.0000      -0.545392       -14.8409 
  50   1.0000      -0.543192       -14.7810 
  51   1.0000      -0.526473       -14.3261 
  52   1.0000      -0.524782       -14.2801 
  53   1.0000      -0.517122       -14.0716 
  54   1.0000      -0.511840       -13.9279 
  55   1.0000      -0.503266       -13.6946 
  56   1.0000      -0.487725       -13.2717 
  57   1.0000      -0.422011       -11.4835 
  58   1.0000      -0.421773       -11.4770 
  59   1.0000      -0.409223       -11.1355 
  60   1.0000      -0.394861       -10.7447 
  61   1.0000      -0.391964       -10.6659 
  62   1.0000      -0.387582       -10.5466 
  63   1.0000      -0.385890       -10.5006 
  64   1.0000      -0.378785       -10.3073 
  65   0.0000      -0.068639        -1.8678 
  66   0.0000      -0.050244        -1.3672 
  67   0.0000       0.004338         0.1180 
  68   0.0000       0.027855         0.7580 
  69   0.0000       0.030940         0.8419 
  70   0.0000       0.034210         0.9309 
  71   0.0000       0.052628         1.4321 
  72   0.0000       0.055246         1.5033 
  73   0.0000       0.061188         1.6650 
  74   0.0000       0.062582         1.7029 
  75   0.0000       0.064655         1.7594 
*Only the first 10 virtual orbitals were printed.

                    ********************************
                    * MULLIKEN POPULATION ANALYSIS *
                    ********************************

--------------------------------------------
MULLIKEN ATOMIC CHARGES AND SPIN POPULATIONS
--------------------------------------------
   0 O :   -0.677229    0.152199
   1 O :   -0.688783    0.153993
   2 O :   -0.617027    0.001073
   3 O :   -0.634829    0.001697
   4 N :   -0.190779    0.025243
   5 N :   -0.256525    0.015141
   6 N :    0.045390    0.033741
   7 N :    0.017514    0.033379
   8 C :    0.052474    0.441436
   9 C :   -0.148028    0.416376
  10 C :    0.321847    0.162899
  11 C :    0.588392    0.198688
  12 C :   -1.641260   -0.005830
  13 C :   -1.437408    0.033816
  14 C :    0.577528    0.075519
  15 C :    0.548473    0.077676
  16 C :    0.366833    0.003029
  17 C :    0.368064    0.003023
  18 H :    0.425105    0.039411
  19 H :    0.607718    0.046272
  20 H :    0.406246   -0.003688
  21 H :    0.469277    0.017384
  22 H :    0.217381    0.027768
  23 H :    0.418192    0.025042
  24 H :    0.307922    0.009719
  25 H :    0.314648    0.018834
  26 H :    0.064245   -0.001203
  27 H :    0.084667    0.002148
  28 H :    0.061876   -0.001795
  29 H :    0.028074   -0.002990
Sum of atomic charges         :    0.0000000
Sum of atomic spin populations:    2.0000000

-----------------------------------------------------
MULLIKEN REDUCED ORBITAL CHARGES AND SPIN POPULATIONS
-----------------------------------------------------
CHARGE
  0 O s       :     4.090519  s :     4.090519
      pz      :     1.594940  p :     4.554773
      px      :     1.444375
      py      :     1.515459
      dz2     :     0.004842  d :     0.030154
      dxz     :     0.007970
      dyz     :     0.005084
      dx2y2   :     0.003894
      dxy     :     0.008364
      f0      :     0.000188  f :     0.001784
      f+1     :     0.000482
      f-1     :     0.000022
      f+2     :     0.000385
      f-2     :     0.000339
      f+3     :     0.000162
      f-3     :     0.000205

[...]
[1741102675.301378] [ohm:817543:0]        ib_iface.c:1059 UCX  ERROR ibv_create_cq(cqe=256) failed: Connection timed out
[1741102675.303951] [ohm:817544:0]        ib_iface.c:1059 UCX  ERROR ibv_create_cq(cqe=256) failed: Connection timed out
[1741102675.304600] [ohm:817559:0]        ib_iface.c:1059 UCX  ERROR ibv_create_cq(cqe=256) failed: Connection timed out
[1741102675.307247] [ohm:817568:0]        ib_iface.c:1059 UCX  ERROR ibv_create_cq(cqe=256) failed: Connection timed out
[1741102675.307358] [ohm:817552:0]        ib_iface.c:1059 UCX  ERROR ibv_create_cq(cqe=256) failed: Connection timed out
[1741102675.307457] [ohm:817569:0]        ib_iface.c:1059 UCX  ERROR ibv_create_cq(cqe=256) failed: Connection timed out
[1741102675.308444] [ohm:817459:0]        ib_iface.c:1059 UCX  ERROR ibv_create_cq(cqe=256) failed: Connection timed out
[1741102675.313941] [ohm:817456:0]        ib_iface.c:1059 UCX  ERROR ibv_create_cq(cqe=256) failed: Connection timed out
[1741102675.314248] [ohm:817527:0]        ib_iface.c:1059 UCX  ERROR ibv_create_cq(cqe=256) failed: Connection timed out
[1741102675.315376] [ohm:817557:0]        ib_iface.c:1059 UCX  ERROR ibv_create_cq(cqe=256) failed: Connection timed out
[1741102675.315948] [ohm:817510:0]        ib_iface.c:1059 UCX  ERROR ibv_create_cq(cqe=256) failed: Connection timed out


           ************************************************************
           *        Program running with 64 parallel MPI-processes    *
           *              working on a common directory               *
           ************************************************************

------------------------------------------------------------------------------
                              ORCA PROPERTY CALCULATIONS
------------------------------------------------------------------------------

GBWName                                 ... orca.gbw
Number of atoms                         ...     30
Number of basis functions               ...    882
Max core memory                         ...   1024 MB

Electric properties:
Dipole moment                           ... YES
Quadrupole moment                       ...  NO
Static polarizability (Dipole/Dipole)   ...  NO
Static polarizability (Dipole/Quad.)    ...  NO
Static polarizability (Quad./Quad.)     ...  NO
Static polarizability (Velocity)        ...  NO

Atomic electric properties:
Dipole moment                           ...  NO
Quadrupole moment                       ...  NO
Static polarizability                   ...  NO

Choice of electric origin               ... Center of mass
Position of electric origin             ...    -0.014588    -0.090287    -0.051984

General magnetic properties:
Magnetizability                         ...  NO

EPR properties:
g-Tensor (aka g-matrix)                 ...  NO
Zero-Field splitting spin-orbit         ...  NO
Zero-field splitting spin-spin          ...  NO
Hyperfine couplings                     ...  NO (   0 nuclei)
Quadrupole couplings                    ...  NO (   0 nuclei)
Contact density                         ...  NO (   0 nuclei)

NMR properties:
Chemical shifts                         ...  NO (   0 nuclei)
Spin-rotation constants                 ...  NO (   0 nuclei)
Spin-spin couplings                     ...  NO (   0 nuclei,    0 pairs)

Choice of magnetic origin               ... GIAO
Position of magnetic origin             ...     0.000000     0.000000     0.000000

Properties with geometric perturbations:
SCF Hessian                             ...  NO
IR spectrum                             ...  NO
VCD spectrum                            ...  NO
X-ray spectroscopy properties:
SCF XES/XAS/RIXS spectra                ...  NO


-------------
DIPOLE MOMENT
-------------

Method             : SCF
Type of density    : Electron Density
Multiplicity       :   3
Irrep              :   0
Energy             :  -908.7369923699436640 Eh
Relativity type    : 
Basis              : AO
                                X                 Y                 Z
Electronic contribution:     -9.892417224      -3.803004163      -0.005046371
Nuclear contribution   :     11.818125455       4.263448510       1.571080458
                        -----------------------------------------
Total Dipole Moment    :      1.925708230       0.460444347       1.566034088
                        -----------------------------------------
Magnitude (a.u.)       :      2.524445276
Magnitude (Debye)      :      6.416629953



--------------------
Rotational spectrum 
--------------------
 
Rotational constants in cm-1:             0.023554             0.011489             0.010561 
Rotational constants in MHz :           706.137631           344.430351           316.623119 

Dipole components along the rotational axes: 
x,y,z [a.u.] :     0.361341     2.498172    -0.037294 
x,y,z [Debye]:     0.918457     6.349850    -0.094794 

 

-------------
DIPOLE MOMENT
-------------

Method             : TDA/CIS
Type of density    : Electron Density
Level              : Relaxed density
State              :   1
Multiplicity       :   3
Irrep              :   0
Energy             :     0.0000000000000000 Eh
Relativity type    : 
Basis              : AO
                                X                 Y                 Z
Electronic contribution:     -9.867305492      -3.786432941       0.090503266
Nuclear contribution   :     11.818125455       4.263448510       1.571080458
                        -----------------------------------------
Total Dipole Moment    :      1.950819963       0.477015569       1.661583724
                        -----------------------------------------
Magnitude (a.u.)       :      2.606549990
Magnitude (Debye)      :      6.625323552



--------------------
Rotational spectrum 
--------------------
 
Rotational constants in cm-1:             0.023554             0.011489             0.010561 
Rotational constants in MHz :           706.137631           344.430351           316.623119 

Dipole components along the rotational axes: 
x,y,z [a.u.] :     0.320663     2.585979    -0.063183 
x,y,z [Debye]:     0.815060     6.573036    -0.160600 

 

Dipole moment calculation done in   0.2 sec 

Maximum memory used throughout the entire PROP-calculation: 81.3 MB
[1741102677.838971] [ohm:817779:0]        ib_iface.c:1059 UCX  ERROR ibv_create_cq(cqe=256) failed: Connection timed out
[1741102677.858687] [ohm:817783:0]        ib_iface.c:1059 UCX  ERROR ibv_create_cq(cqe=256) failed: Connection timed out
[1741102677.892025] [ohm:817777:0]        ib_iface.c:1059 UCX  ERROR ibv_create_cq(cqe=256) failed: Connection timed out
[1741102677.921340] [ohm:817784:0]        ib_iface.c:1059 UCX  ERROR ibv_create_cq(cqe=256) failed: Connection timed out
[1741102677.931502] [ohm:817778:0]        ib_iface.c:1059 UCX  ERROR ibv_create_cq(cqe=256) failed: Connection timed out
[1741102677.931771] [ohm:817782:0]        ib_iface.c:1059 UCX  ERROR ibv_create_cq(cqe=256) failed: Connection timed out
[1741102677.937990] [ohm:817792:0]        ib_iface.c:1059 UCX  ERROR ibv_create_cq(cqe=256) failed: Connection timed out
[1741102677.941120] [ohm:817786:0]        ib_iface.c:1059 UCX  ERROR ibv_create_cq(cqe=256) failed: Connection timed out
[1741102677.942410] [ohm:817785:0]        ib_iface.c:1059 UCX  ERROR ibv_create_cq(cqe=256) failed: Connection timed out
[1741102677.942654] [ohm:817793:0]        ib_iface.c:1059 UCX  ERROR ibv_create_cq(cqe=256) failed: Connection timed out
[1741102677.946272] [ohm:817796:0]        ib_iface.c:1059 UCX  ERROR ibv_create_cq(cqe=256) failed: Connection timed out
[1741102677.959851] [ohm:817934:0]        ib_iface.c:1059 UCX  ERROR ibv_create_cq(cqe=256) failed: Connection timed out
[1741102677.964898] [ohm:817859:0]        ib_iface.c:1059 UCX  ERROR ibv_create_cq(cqe=256) failed: Connection timed out
[1741102677.965104] [ohm:817904:0]        ib_iface.c:1059 UCX  ERROR ibv_create_cq(cqe=256) failed: Connection timed out
[1741102677.989906] [ohm:817798:0]        ib_iface.c:1059 UCX  ERROR ibv_create_cq(cqe=256) failed: Connection timed out
[1741102677.992086] [ohm:817868:0]        ib_iface.c:1059 UCX  ERROR ibv_create_cq(cqe=256) failed: Connection timed out
[1741102678.003670] [ohm:817831:0]        ib_iface.c:1059 UCX  ERROR ibv_create_cq(cqe=256) failed: Connection timed out
[1741102678.009742] [ohm:817803:0]        ib_iface.c:1059 UCX  ERROR ibv_create_cq(cqe=256) failed: Connection timed out
[1741102678.048626] [ohm:817799:0]        ib_iface.c:1059 UCX  ERROR ibv_create_cq(cqe=256) failed: Connection timed out
[1741102678.052809] [ohm:817850:0]        ib_iface.c:1059 UCX  ERROR ibv_create_cq(cqe=256) failed: Connection timed out
[1741102678.054689] [ohm:817822:0]        ib_iface.c:1059 UCX  ERROR ibv_create_cq(cqe=256) failed: Connection timed out
[1741102678.056203] [ohm:817855:0]        ib_iface.c:1059 UCX  ERROR ibv_create_cq(cqe=256) failed: Connection timed out
[1741102678.057359] [ohm:817914:0]        ib_iface.c:1059 UCX  ERROR ibv_create_cq(cqe=256) failed: Connection timed out
[1741102678.057802] [ohm:817881:0]        ib_iface.c:1059 UCX  ERROR ibv_create_cq(cqe=256) failed: Connection timed out
[1741102678.060322] [ohm:817818:0]        ib_iface.c:1059 UCX  ERROR ibv_create_cq(cqe=256) failed: Connection timed out
[1741102678.061929] [ohm:817858:0]        ib_iface.c:1059 UCX  ERROR ibv_create_cq(cqe=256) failed: Connection timed out
[1741102678.089066] [ohm:817927:0]        ib_iface.c:1059 UCX  ERROR ibv_create_cq(cqe=256) failed: Connection timed out
[1741102678.089252] [ohm:817837:0]        ib_iface.c:1059 UCX  ERROR ibv_create_cq(cqe=256) failed: Connection timed out
[1741102678.099923] [ohm:817873:0]        ib_iface.c:1059 UCX  ERROR ibv_create_cq(cqe=256) failed: Connection timed out
[1741102678.099972] [ohm:817800:0]        ib_iface.c:1059 UCX  ERROR ibv_create_cq(cqe=256) failed: Connection timed out
[1741102678.111950] [ohm:817887:0]        ib_iface.c:1059 UCX  ERROR ibv_create_cq(cqe=256) failed: Connection timed out
[1741102678.113827] [ohm:817781:0]        ib_iface.c:1059 UCX  ERROR ibv_create_cq(cqe=256) failed: Connection timed out
[1741102678.123726] [ohm:817789:0]        ib_iface.c:1059 UCX  ERROR ibv_create_cq(cqe=256) failed: Connection timed out
[1741102678.129368] [ohm:817801:0]        ib_iface.c:1059 UCX  ERROR ibv_create_cq(cqe=256) failed: Connection timed out
[1741102678.132835] [ohm:817832:0]        ib_iface.c:1059 UCX  ERROR ibv_create_cq(cqe=256) failed: Connection timed out
[1741102678.133238] [ohm:817889:0]        ib_iface.c:1059 UCX  ERROR ibv_create_cq(cqe=256) failed: Connection timed out
[1741102678.136492] [ohm:817844:0]        ib_iface.c:1059 UCX  ERROR ibv_create_cq(cqe=256) failed: Connection timed out
[1741102678.146173] [ohm:817840:0]        ib_iface.c:1059 UCX  ERROR ibv_create_cq(cqe=256) failed: Connection timed out
[1741102678.149180] [ohm:817791:0]        ib_iface.c:1059 UCX  ERROR ibv_create_cq(cqe=256) failed: Connection timed out
[1741102678.158297] [ohm:817884:0]        ib_iface.c:1059 UCX  ERROR ibv_create_cq(cqe=256) failed: Connection timed out
[1741102678.158798] [ohm:817780:0]        ib_iface.c:1059 UCX  ERROR ibv_create_cq(cqe=256) failed: Connection timed out
[1741102678.159051] [ohm:817826:0]        ib_iface.c:1059 UCX  ERROR ibv_create_cq(cqe=256) failed: Connection timed out
[1741102678.164722] [ohm:817797:0]        ib_iface.c:1059 UCX  ERROR ibv_create_cq(cqe=256) failed: Connection timed out
[1741102678.188616] [ohm:817787:0]        ib_iface.c:1059 UCX  ERROR ibv_create_cq(cqe=256) failed: Connection timed out
[1741102678.191018] [ohm:817918:0]        ib_iface.c:1059 UCX  ERROR ibv_create_cq(cqe=256) failed: Connection timed out
[1741102678.191210] [ohm:817802:0]        ib_iface.c:1059 UCX  ERROR ibv_create_cq(cqe=256) failed: Connection timed out
[1741102678.192747] [ohm:817862:0]        ib_iface.c:1059 UCX  ERROR ibv_create_cq(cqe=256) failed: Connection timed out
[1741102678.196321] [ohm:817893:0]        ib_iface.c:1059 UCX  ERROR ibv_create_cq(cqe=256) failed: Connection timed out
[1741102678.206408] [ohm:817899:0]        ib_iface.c:1059 UCX  ERROR ibv_create_cq(cqe=256) failed: Connection timed out
[1741102678.206897] [ohm:817795:0]        ib_iface.c:1059 UCX  ERROR ibv_create_cq(cqe=256) failed: Connection timed out
[1741102678.210432] [ohm:817794:0]        ib_iface.c:1059 UCX  ERROR ibv_create_cq(cqe=256) failed: Connection timed out
[1741102678.212647] [ohm:817864:0]        ib_iface.c:1059 UCX  ERROR ibv_create_cq(cqe=256) failed: Connection timed out
[1741102678.215928] [ohm:817908:0]        ib_iface.c:1059 UCX  ERROR ibv_create_cq(cqe=256) failed: Connection timed out
[1741102678.216970] [ohm:817790:0]        ib_iface.c:1059 UCX  ERROR ibv_create_cq(cqe=256) failed: Connection timed out
[1741102678.217215] [ohm:817810:0]        ib_iface.c:1059 UCX  ERROR ibv_create_cq(cqe=256) failed: Connection timed out
[1741102678.217428] [ohm:817829:0]        ib_iface.c:1059 UCX  ERROR ibv_create_cq(cqe=256) failed: Connection timed out
[1741102678.217867] [ohm:817857:0]        ib_iface.c:1059 UCX  ERROR ibv_create_cq(cqe=256) failed: Connection timed out
[1741102678.217985] [ohm:817823:0]        ib_iface.c:1059 UCX  ERROR ibv_create_cq(cqe=256) failed: Connection timed out
[1741102678.218282] [ohm:817876:0]        ib_iface.c:1059 UCX  ERROR ibv_create_cq(cqe=256) failed: Connection timed out
[1741102678.218360] [ohm:817813:0]        ib_iface.c:1059 UCX  ERROR ibv_create_cq(cqe=256) failed: Connection timed out
[1741102678.218990] [ohm:817788:0]        ib_iface.c:1059 UCX  ERROR ibv_create_cq(cqe=256) failed: Connection timed out
[1741102678.219473] [ohm:817805:0]        ib_iface.c:1059 UCX  ERROR ibv_create_cq(cqe=256) failed: Connection timed out
[1741102678.220819] [ohm:817902:0]        ib_iface.c:1059 UCX  ERROR ibv_create_cq(cqe=256) failed: Connection timed out
[1741102678.220962] [ohm:817895:0]        ib_iface.c:1059 UCX  ERROR ibv_create_cq(cqe=256) failed: Connection timed out

--------------------------------
SUGGESTED CITATIONS FOR THIS RUN
--------------------------------

Below you find a list of papers that are relevant to this ORCA run
We neither can nor want to force you to cite these papers, but we appreciate if you do
You receive ORCA, which is the product of decades of hard work by many enthusiastic individuals, for free
The only thing we kindly ask in return is that you cite our papers,
We deeply appreciate it, if you show your appreciation for ORCA by not just citing the generic ORCA reference.

Please note that relegating all ORCA citations to the supporting information does *not* help us.
SI sections are not indexed - citations you put there will not count into any citation statistics
But we need these citations in order to attract the funding resources that allow us to do what we are doing

Therefore, if you are a happy ORCA user, please consider citing a few of the papers listed below in the main body of your paper

In addition to the list printed below, the program has created the file orca.bibtex that contains the list in bibtex format
You can import this file easily into all common literature databanks and citation aid programs


List of essential papers. We consider these as the minimum necessary citations

  1. Neese,F.
     Software update: the ORCA program system, version 5.0
     WIRES Comput. Molec. Sci., 2022 12(1)e1606
     doi.org/10.1002/wcms.1606

List of papers to cite with high priority. The work reported in these papers was absolutely
necessary for this run to complete.
Our perspective: the developers of density functionals and basis sets usually get cited in chemistry papers
Good! But without the algorithms to do something with them, the functionals or basis sets would not do anything.
Hence, in our opinion, the algorithm design and method developments papers are equally worthy of getting cited

  1. Neese,F.; Olbrich,G.
     Efficient use of the resolution of the identity approximation in time-dependent density functional calculations with hybrid density functionals
     Chem. Phys. Lett., 2002 362 170-178
     doi.org/10.1016/s0009-2614(02)01053-9
  2. Neese,F.
     An improvement of the resolution of the identity approximation for the formation of the Coulomb matrix
     J. Comp. Chem., 2003 24(14)1740-1747
     doi.org/10.1002/jcc.10318
  3. Neese,F.; Wennmohs,F.; Hansen,A.; Becker,U.
     Efficient, approximate and parallel Hartree-Fock and hybrid DFT calculations. A 'chain-of-spheres' algorithm for the Hartree-Fock exchange
     Chem. Phys., 2009 356(1-3)98-109
     doi.org/10.1016/j.chemphys.2008.10.036
  4. Petrenko,T.; Kossmann,S.; Neese,F.
     Efficient time-dependent density functional theory approximations for hybrid density functionals: Analytical gradients and parallelization
     J. Chem. Phys., 2011 134 054116
     doi.org/10.1063/1.3533441
  5. Helmich-Paris,B.; de Souza,B.; Neese,F.; Izsák,R.
     An improved chain of spheres for exchange algorithm
     J. Chem. Phys., 2021 155 104109
     doi.org/doi: 10.1063/5.0058766.
  6. Neese,F.
     The SHARK Integral Generation and Digestion System
     J. Comp. Chem., 2022  1-16
     doi.org/10.1002/jcc.26942
  7. Lehtola,S.; Steigemann,C.; Oliveira,M.; Marques,M.
     Recent developments in Libxc - A comprehensive library of functionals for density functional theory
     Software X, 2018 7 
     doi.org/10.1016/j.softx.2017.11.002
  8. Grimme,S.; Antony,J.; Ehrlich,S.; Krieg,H.
     A consistent and accurate ab initio parametrization of density functional dispersion correction (DFT-D) for the 94 elements H-Pu
     J. Chem. Phys., 2010 132 154104-XXXX
     doi.org/10.1063/1.3382344
  9. Grimme,S.; Ehrlich,S.; Goerigk,L.
     Effect of the damping function in dispersion corrected density functional theory
     J. Comput. Chem., 2011 32(7)1456-1465
     doi.org/10.1002/jcc.21759

List of suggested additional citations. These are papers that are important in the 'surrounding' of 
of this run, or papers that preceded the highly important papers. If you like your results we are grateful for a citation.

  1. Izsak,R.; Neese,F.
     An overlap fitted chain of spheres exchange method
     J. Chem. Phys., 2011 135 144105
     doi.org/10.1063/1.3646921
  2. Izsak,R.; Hansen,A.; Neese,F.
     The resolution of identity and chain of spheres approximations for the LPNO-CCSD singles Fock term
     Molec. Phys., 2012 110 2413-2417
     doi.org/10.1080/00268976.2012.687466
  3. Neese,F.
     The ORCA program system
     WIRES Comput. Molec. Sci., 2012 2(1)73-78
     doi.org/10.1002/wcms.81
  4. Izsak,R.; Neese,F.; Klopper,W.
     Robust fitting techniques in the chain of spheres approximation to the Fock exchange: The role of the complementary space
     J. Chem. Phys., 2013 139 
     doi.org/10.1063/1.4819264
  5. Neese,F.
     Software update: the ORCA program system, version 4.0
     WIRES Comput. Molec. Sci., 2018 8(1)1-6
     doi.org/10.1002/wcms.1327
  6. Neese,F.; Wennmohs,F.; Becker,U.; Riplinger,C.
     The ORCA quantum chemistry program package
     J. Chem. Phys., 2020 152 Art. No. L224108
     doi.org/10.1063/5.0004608

List of optional additional citations

  1. Neese,F.
     Approximate second-order SCF convergence for spin unrestricted wavefunctions
     Chem. Phys. Lett., 2000 325(1-3)93-98
     doi.org/10.1016/s0009-2614(00)00662-x

Timings for individual modules:

Sum of individual times          ...      305.659 sec (=   5.094 min)
Startup calculation              ...        6.429 sec (=   0.107 min)   2.1 %
SCF iterations                   ...      128.152 sec (=   2.136 min)  41.9 %
Property integrals               ...        4.403 sec (=   0.073 min)   1.4 %
Property calculations            ...        2.902 sec (=   0.048 min)   0.9 %
CIS module                       ...      163.773 sec (=   2.730 min)  53.6 %
                             ****ORCA TERMINATED NORMALLY****
TOTAL RUN TIME: 0 days 0 hours 5 minutes 7 seconds 877 msec
