
                                 *****************
                                 * O   R   C   A *
                                 *****************

                                            #,                                       
                                            ###                                      
                                            ####                                     
                                            #####                                    
                                            ######                                   
                                           ########,                                 
                                     ,,################,,,,,                         
                               ,,#################################,,                 
                          ,,##########################################,,             
                       ,#########################################, ''#####,          
                    ,#############################################,,   '####,        
                  ,##################################################,,,,####,       
                ,###########''''           ''''###############################       
              ,#####''   ,,,,##########,,,,          '''####'''          '####       
            ,##' ,,,,###########################,,,                        '##       
           ' ,,###''''                  '''############,,,                           
         ,,##''                                '''############,,,,        ,,,,,,###''
      ,#''                                            '''#######################'''  
     '                                                          ''''####''''         
             ,#######,   #######,   ,#######,      ##                                
            ,#'     '#,  ##    ##  ,#'     '#,    #''#        ,####,   ,####,        
            ##       ##  ##   ,#'  ##            #'  '#       #'       #'  '#        
            ##       ##  #######   ##           ,######,      #####,   #    #        
            '#,     ,#'  ##    ##  '#,     ,#' ,#      #,     #,   #   #,  ,#        
             '#######'   ##     ##  '#######'  #'      '#     '####' # '####'        



                #########################################################
                #                        -***-                          #
                #          Department of theory and spectroscopy        #
                #                                                       #
                #                      Frank Neese                      #
                #                                                       #
                #     Directorship, Architecture, Infrastructure        #
                #                    SHARK, DRIVERS                     #
                #        Core code/Algorithms in most modules           #
                #                                                       #
                #        Max Planck Institute fuer Kohlenforschung      #
                #                Kaiser Wilhelm Platz 1                 #
                #                 D-45470 Muelheim/Ruhr                 #
                #                      Germany                          #
                #                                                       #
                #                  All rights reserved                  #
                #                        -***-                          #
                #########################################################


                         Program Version 6.0.0  -   RELEASE  -


 With contributions from (in alphabetic order):
   Daniel Aravena         : Magnetic Suceptibility
   Michael Atanasov       : Ab Initio Ligand Field Theory (pilot matlab implementation)
   Alexander A. Auer      : GIAO ZORA, VPT2 properties, NMR spectrum
   Ute Becker             : All parallelization in ORCA, NUMFREQ, NUMCALC
   Giovanni Bistoni       : ED, misc. LED, open-shell LED, HFLD
   Martin Brehm           : Molecular dynamics
   Dmytro Bykov           : pre 5.0 version of the SCF Hessian
   Marcos Casanova-Páez   : Triplet and SCS-CIS(D). UHF-(DLPNO)-IP/EA/STEOM-CCSD. UHF-CVS-IP/STEOM-CCSD
   Vijay G. Chilkuri      : MRCI spin determinant printing, contributions to CSF-ICE
   Pauline Colinet        : FMM embedding
   Dipayan Datta          : RHF DLPNO-CCSD density
   Achintya Kumar Dutta   : EOM-CC, STEOM-CC
   Nicolas Foglia         : Exact transition moments, OPA infrastructure, MCD improvements
   Dmitry Ganyushin       : Spin-Orbit,Spin-Spin,Magnetic field MRCI
   Miquel Garcia          : C-PCM and meta-GGA Hessian, CCSD/C-PCM, Gaussian charge scheme
   Tiago L. C. Gouveia    : GS-ROHF, GS-ROCIS
   Yang Guo               : DLPNO-NEVPT2, F12-NEVPT2, CIM, IAO-localization
   Andreas Hansen         : Spin unrestricted coupled pair/coupled cluster methods
   Ingolf Harden          : AUTO-CI MPn and infrastructure 
   Benjamin Helmich-Paris : MC-RPA, TRAH-(SCF,CASSCF), AVAS, COSX integrals, SCF dyn. polar.
   Lee Huntington         : MR-EOM, pCC
   Robert Izsak           : Overlap fitted RIJCOSX, COSX-SCS-MP3, EOM
   Riya Kayal             : Wick's Theorem for AUTO-CI, AUTO-CI UHF-CCSDT
   Emily Kempfer          : AUTO-CI, RHF CISDT and CCSDT
   Christian Kollmar      : KDIIS, OOCD, Brueckner-CCSD(T), CCSD density, CASPT2, CASPT2-K, improved NEVPT2
   Axel Koslowski         : Symmetry handling
   Simone Kossmann        : Meta GGA functionals, TD-DFT gradient, OOMP2, (MP2 Hessian; deprecated post 5.0)
   Lucas Lang             : DCDCAS
   Marvin Lechner         : AUTO-CI (C++ implementation), FIC-MRCC
   Spencer Leger          : CASSCF response
   Dagmar Lenk            : GEPOL surface, SMD, ORCA-2-JSON
   Dimitrios Liakos       : Extrapolation schemes; Compound Job, initial MDCI parallelization
   Dimitrios Manganas     : Further ROCIS development; embedding schemes. LFT, Crystal Embedding
   Dimitrios Pantazis     : SARC Basis sets
   Anastasios Papadopoulos: AUTO-CI, single reference methods and gradients
   Taras Petrenko         : pre 6.0 DFT Hessian and TD-DFT gradient, (ASA, deprecated), ECA, 1-Electron XAS/XES, NRVS
   Peter Pinski           : DLPNO-MP2, DLPNO-MP2 Gradient
   Christoph Reimann      : Effective Core Potentials
   Marius Retegan         : Local ZFS, SOC
   Christoph Riplinger    : Optimizer, TS searches, QM/MM, DLPNO-CCSD(T), (RO)-DLPNO pert. Triples
   Michael Roemelt        : Original ROCIS implementation
   Masaaki Saitow         : Open-shell DLPNO-CCSD energy and density
   Barbara Sandhoefer     : DKH picture change effects
   Kantharuban Sivalingam : CASSCF convergence/infrastructure, NEVPT2 and variants, FIC-MRCI
   Bernardo de Souza      : ESD, SOC TD-DFT
   Georgi Stoychev        : AutoAux, RI-MP2 NMR, DLPNO-MP2 response, X2C
   Van Anh Tran           : RI-MP2 g-tensors
   Willem Van den Heuvel  : Paramagnetic NMR
   Zikuan Wang            : NOTCH, Electric field optimization 
   Frank Wennmohs         : Technical directorship and infrastructure
   Hang Xu                : AUTO-CI-Response properties 


 We gratefully acknowledge several colleagues who have allowed us to
 interface, adapt or use parts of their codes:
   Stefan Grimme, W. Hujo, H. Kruse, P. Pracht,  : VdW corrections, initial TS optimization,
                  C. Bannwarth, S. Ehlert,         DFT functionals, gCP, sTDA/sTD-DF
                  L. Wittmann, M. Mueller
   Ed Valeev, F. Pavosevic, A. Kumar             : LibInt (2-el integral package), F12 methods
   Garnet Chan, S. Sharma, J. Yang, R. Olivares  : DMRG
   Ulf Ekstrom                                   : XCFun DFT Library
   Mihaly Kallay                                 : mrcc  (arbitrary order and MRCC methods)
   Frank Weinhold                                : gennbo (NPA and NBO analysis)
   Simon Mueller                                 : openCOSMO-RS
   Christopher J. Cramer and Donald G. Truhlar   : smd solvation model
   Lars Goerigk                                  : TD-DFT with DH, B97 family of functionals
   V. Asgeirsson, H. Jonsson                     : NEB implementation
   FAccTs GmbH                                   : IRC, NEB, NEB-TS, DLPNO-Multilevel, CI-OPT
                                                   MM, QMMM, 2- and 3-layer-ONIOM, Crystal-QMMM,
                                                   LR-CPCM, SF, NACMEs, symmetry and pop. for TD-DFT,
                                                   nearIR, NL-DFT gradient (VV10), updates on ESD,
                                                   ML-optimized integration grids, MBIS, APM,
                                                   GOAT, DOCKER, SOLVATOR, interface openCOSMO-RS
   S Lehtola, MJT Oliveira, MAL Marques          : LibXC Library
   Liviu Ungur et al                             : ANISO software


 Your calculation uses the libint2 library for the computation of 2-el integrals
 For citations please refer to: http://libint.valeyev.net

 Your ORCA version has been built with support for libXC version: 6.2.2
 For citations please refer to: https://libxc.gitlab.io

 This ORCA versions uses:
   CBLAS   interface :  Fast vector & matrix operations
   LAPACKE interface :  Fast linear algebra routines
   SCALAPACK package :  Parallel linear algebra routines
   Shared memory     :  Shared parallel matrices
   BLAS/LAPACK       :  OpenBLAS 0.3.27  USE64BITINT DYNAMIC_ARCH NO_AFFINITY Zen SINGLE_THREADED
        Core in use  :  Zen
   Copyright (c) 2011-2014, The OpenBLAS Project


Your calculation utilizes the atom-pairwise dispersion correction
with the Becke-Johnson damping scheme (D3BJ)


Warning: RI is on but no J-basis has been assigned. Assigning Def2/J (nothing to worry about!)
================================================================================

----- Orbital basis set information -----
Your calculation utilizes the basis: def2-TZVPPD
   F. Weigend and R. Ahlrichs, Phys. Chem. Chem. Phys. 7, 3297 (2005).
   D. Rappoport and F. Furche, J. Chem. Phys. 133, 134105 (2010)
   D. Rappoport, J. Chem. Phys. 155, 124102 (2021).

----- AuxJ basis set information -----
Your calculation utilizes the auxiliary basis: def2/J
   F. Weigend, Phys. Chem. Chem. Phys. 8, 1057 (2006).

================================================================================
                                        WARNINGS
                       Please study these warnings very carefully!
================================================================================

Using LibXC functional ID 531 : wB97M-V exchange-correlation functional
[ 1]  N. Mardirossian and M. Head-Gordon.,  J. Chem. Phys. 144, 214110 (2016)
Using LibXC functional ID 531 : wB97M-V exchange-correlation functional
[ 1]  N. Mardirossian and M. Head-Gordon.,  J. Chem. Phys. 144, 214110 (2016)

WARNING: B97M-V or wB97M-V functional requested.
  ===> : libXC variant has now been activated.
         Any manually given DFX/HFX/RangeSep scaling parameters are IGNORED!

Your calculation utilizes LibXC
 by S Lehtola, C Steigemann, MJT Oliveira & MAL Marques
Please cite in your paper:
 S Lehtola, C Steigemann, MJT Oliveira & MAL Marques, SoftwareX, 7, (2018), 1.
   


WARNING: your system is open-shell and RHF/RKS was chosen
  ===> : WILL SWITCH to UHF/UKS

INFO   : Checking CIS options ...

WARNING: CIS/ROCIS methods need fully converged wavefunctions
  ===> : Setting SCFConvForced true
         You can overwrite this default with %scf ConvForced false 


================================================================================
                                       INPUT FILE
================================================================================
NAME = orca.inp
|  1> ! EnGrad wB97M-D3BJ def2-TZVPPD 
|  2> %pal nprocs 8 end%pal nprocs 16 end 
|  3> %tddft 
|  4>  sf true 
|  5>  nroots 2 Iroot 2 end 
|  6> *xyz 0 3 
|  7> O   0.05421280492301 0.81693982830338 -7.67982569e-05
|  8> C   0.70325031691878 -0.40797224666788 0.00025164691362
|  9> C   -0.72771609645645 -0.49228771296121 -0.00031591732614
| 10> H   1.24705166464227 -0.65381802490738 0.90834214156568
| 11> H   1.24650703020534 -0.65472425815085 -0.90801274609584
| 12> H   -1.26093805554204 -0.66302702444349 -0.92256220889381
| 13> H   -1.26016766469091 -0.66351056117256 0.92237388209338
| 14> *
| 15> 
| 16>                          ****END OF INPUT****
================================================================================

                     *******************************
                     * Energy+Gradient Calculation *
                     *******************************

---------------------------------
CARTESIAN COORDINATES (ANGSTROEM)
---------------------------------
  O      0.054213    0.816940   -0.000077
  C      0.703250   -0.407972    0.000252
  C     -0.727716   -0.492288   -0.000316
  H      1.247052   -0.653818    0.908342
  H      1.246507   -0.654724   -0.908013
  H     -1.260938   -0.663027   -0.922562
  H     -1.260168   -0.663511    0.922374

----------------------------
CARTESIAN COORDINATES (A.U.)
----------------------------
  NO LB      ZA    FRAG     MASS         X           Y           Z
   0 O     8.0000    0    15.999    0.102447    1.543793   -0.000145
   1 C     6.0000    0    12.011    1.328951   -0.770956    0.000476
   2 C     6.0000    0    12.011   -1.375184   -0.930289   -0.000597
   3 H     1.0000    0     1.008    2.356586   -1.235537    1.716518
   4 H     1.0000    0     1.008    2.355557   -1.237250   -1.715895
   5 H     1.0000    0     1.008   -2.382828   -1.252939   -1.743390
   6 H     1.0000    0     1.008   -2.381372   -1.253853    1.743034

--------------------------------
INTERNAL COORDINATES (ANGSTROEM)
--------------------------------
 O      0   0   0     0.000000000000     0.00000000     0.00000000
 C      1   0   0     1.386239297980     0.00000000     0.00000000
 C      2   1   0     1.433448393279    65.45455098     0.00000000
 H      2   1   3     1.086640878553   115.74835566   248.05926629
 H      2   1   3     1.086719199844   115.75312009   111.84538772
 H      3   2   1     1.078895635568   120.20004430    98.57328598
 H      3   2   1     1.078970992297   120.10737209   261.39352790

---------------------------
INTERNAL COORDINATES (A.U.)
---------------------------
 O      0   0   0     0.000000000000     0.00000000     0.00000000
 C      1   0   0     2.619612629262     0.00000000     0.00000000
 C      2   1   0     2.708824890406    65.45455098     0.00000000
 H      2   1   3     2.053453666388   115.74835566   248.05926629
 H      2   1   3     2.053601672180   115.75312009   111.84538772
 H      3   2   1     2.038817278306   120.20004430    98.57328598
 H      3   2   1     2.038959681886   120.10737209   261.39352790

---------------------
BASIS SET INFORMATION
---------------------
There are 3 groups of distinct atoms

 Group   1 Type O   : 12s7p3d1f contracted to 6s4p3d1f pattern {621111/4111/111/1}
 Group   2 Type C   : 12s6p3d1f contracted to 6s3p3d1f pattern {621111/411/111/1}
 Group   3 Type H   : 5s3p1d contracted to 3s3p1d pattern {311/111/1}

Atom   0O    basis set group =>   1
Atom   1C    basis set group =>   2
Atom   2C    basis set group =>   2
Atom   3H    basis set group =>   3
Atom   4H    basis set group =>   3
Atom   5H    basis set group =>   3
Atom   6H    basis set group =>   3
---------------------------------
AUXILIARY/J BASIS SET INFORMATION
---------------------------------
There are 3 groups of distinct atoms

 Group   1 Type O   : 12s5p4d2f1g contracted to 6s4p3d1f1g pattern {711111/2111/211/2/1}
 Group   2 Type C   : 12s5p4d2f1g contracted to 6s4p3d1f1g pattern {711111/2111/211/2/1}
 Group   3 Type H   : 5s2p1d contracted to 3s1p1d pattern {311/2/1}

Atom   0O    basis set group =>   1
Atom   1C    basis set group =>   2
Atom   2C    basis set group =>   2
Atom   3H    basis set group =>   3
Atom   4H    basis set group =>   3
Atom   5H    basis set group =>   3
Atom   6H    basis set group =>   3
[1740999208.428748] [ohm:3198006:0]        ib_iface.c:1059 UCX  ERROR ibv_create_cq(cqe=256) failed: Connection timed out
[1740999208.428756] [ohm:3198002:0]        ib_iface.c:1059 UCX  ERROR ibv_create_cq(cqe=256) failed: Connection timed out
[1740999208.430810] [ohm:3198001:0]        ib_iface.c:1059 UCX  ERROR ibv_create_cq(cqe=256) failed: Connection timed out
[1740999208.430949] [ohm:3198007:0]        ib_iface.c:1059 UCX  ERROR ibv_create_cq(cqe=256) failed: Connection timed out
[1740999208.431553] [ohm:3198003:0]        ib_iface.c:1059 UCX  ERROR ibv_create_cq(cqe=256) failed: Connection timed out
[1740999208.431725] [ohm:3198004:0]        ib_iface.c:1059 UCX  ERROR ibv_create_cq(cqe=256) failed: Connection timed out
[1740999208.434188] [ohm:3198024:0]        ib_iface.c:1059 UCX  ERROR ibv_create_cq(cqe=256) failed: Connection timed out
[1740999208.434377] [ohm:3198008:0]        ib_iface.c:1059 UCX  ERROR ibv_create_cq(cqe=256) failed: Connection timed out
[1740999208.434406] [ohm:3198015:0]        ib_iface.c:1059 UCX  ERROR ibv_create_cq(cqe=256) failed: Connection timed out
[1740999208.435109] [ohm:3198005:0]        ib_iface.c:1059 UCX  ERROR ibv_create_cq(cqe=256) failed: Connection timed out
[1740999208.439715] [ohm:3198021:0]        ib_iface.c:1059 UCX  ERROR ibv_create_cq(cqe=256) failed: Connection timed out
[1740999208.440401] [ohm:3198011:0]        ib_iface.c:1059 UCX  ERROR ibv_create_cq(cqe=256) failed: Connection timed out
[1740999208.441341] [ohm:3198026:0]        ib_iface.c:1059 UCX  ERROR ibv_create_cq(cqe=256) failed: Connection timed out
[1740999208.442835] [ohm:3198028:0]        ib_iface.c:1059 UCX  ERROR ibv_create_cq(cqe=256) failed: Connection timed out
[1740999208.442902] [ohm:3198030:0]        ib_iface.c:1059 UCX  ERROR ibv_create_cq(cqe=256) failed: Connection timed out
[1740999208.453693] [ohm:3198029:0]        ib_iface.c:1059 UCX  ERROR ibv_create_cq(cqe=256) failed: Connection timed out


           ************************************************************
           *        Program running with 16 parallel MPI-processes    *
           *              working on a common directory               *
           ************************************************************
------------------------------------------------------------------------------
                             ORCA STARTUP CALCULATIONS
                           -- RI-GTO INTEGRALS CHOSEN --
------------------------------------------------------------------------------
------------------------------------------------------------------------------
                   ___                                                        
                  /   \      - P O W E R E D   B Y -                         
                 /     \                                                     
                 |  |  |   _    _      __       _____    __    __             
                 |  |  |  | |  | |    /  \     |  _  \  |  |  /  |          
                  \  \/   | |  | |   /    \    | | | |  |  | /  /          
                 / \  \   | |__| |  /  /\  \   | |_| |  |  |/  /          
                |  |  |   |  __  | /  /__\  \  |    /   |      \           
                |  |  |   | |  | | |   __   |  |    \   |  |\   \          
                \     /   | |  | | |  |  |  |  | |\  \  |  | \   \       
                 \___/    |_|  |_| |__|  |__|  |_| \__\ |__|  \__/        
                                                                              
                      - O R C A' S   B I G   F R I E N D -                    
                                      &                                       
                       - I N T E G R A L  F E E D E R -                       
                                                                              
 v1 FN, 2020, v2 2021, v3 2022-2024                                           
------------------------------------------------------------------------------


----------------------
SHARK INTEGRAL PACKAGE
----------------------

Number of atoms                             ...      7
Number of basis functions                   ...    182
Number of shells                            ...     68
Maximum angular momentum                    ...      3
Integral batch strategy                     ... SHARK/LIBINT Hybrid
RI-J (if used) integral strategy            ... SPLIT-RIJ (Revised 2003 algorithm where possible)
Printlevel                                  ...      1
Contraction scheme used                     ... SEGMENTED contraction
Prescreening option                         ... SCHWARTZ
   Thresh                                   ... 2.500e-11
   Tcut                                     ... 2.500e-12
   Tpresel                                  ... 2.500e-12 
Coulomb Range Separation                    ... NOT USED
Exchange Range Separation                   ... Long Range
   Mu parameter                             ... 3.000e-01
   Scaling (regular/separated)              ... 1.500e-01 8.500e-01
Multipole approximations                    ... NOT USED
Finite Nucleus Model                        ... NOT USED
CABS basis                                  ... NOT available
Auxiliary Coulomb fitting basis             ... AVAILABLE
   # of basis functions in Aux-J            ...    191
   # of shells in Aux-J                     ...     65
   Maximum angular momentum in Aux-J        ...      4
Auxiliary J/K fitting basis                 ... NOT available
Auxiliary Correlation fitting basis         ... NOT available
Auxiliary 'external' fitting basis          ... NOT available

Checking pre-screening integrals            ... done (  0.0 sec) Dimension = 68
Check shell pair data                       ... done (  0.0 sec)
Shell pair information
Shell pair cut-off parameter TPreSel        ...   2.5e-12
Total number of shell pairs                 ...      2346
Shell pairs after pre-screening             ...      2341
Total number of primitive shell pairs       ...      5434
Primitive shell pairs kept                  ...      4919
          la=0 lb=0:    460 shell pairs
          la=1 lb=0:    660 shell pairs
          la=1 lb=1:    253 shell pairs
          la=2 lb=0:    390 shell pairs
          la=2 lb=1:    286 shell pairs
          la=2 lb=2:     91 shell pairs
          la=3 lb=0:     90 shell pairs
          la=3 lb=1:     66 shell pairs
          la=3 lb=2:     39 shell pairs
          la=3 lb=3:      6 shell pairs

Calculating one electron integrals          ... done (  0.0 sec)
Calculating RI/J V-Matrix + Cholesky decomp.... done (  0.0 sec)
Calculating Nuclear repulsion               ... done (  0.0 sec) ENN=     75.068182927674 Eh

Diagonalization of the overlap matrix:
Smallest eigenvalue                        ... 9.204e-06
Time for diagonalization                   ...    0.003 sec
Threshold for overlap eigenvalues          ... 1.000e-07
Number of eigenvalues below threshold      ... 0
Time for construction of square roots      ...    0.001 sec
Total time needed                          ...    0.005 sec

-------------------
DFT GRID GENERATION
-------------------

General Integration Accuracy     IntAcc      ... 4.388
Radial Grid Type                 RadialGrid  ... OptM3 with GC (2021)
Angular Grid (max. ang.)         AngularGrid ... 4 (Lebedev-302)
Angular grid pruning method      GridPruning ... 4 (adaptive)
Weight generation scheme         WeightScheme... mBecke (2022)
Basis function cutoff            BFCut       ... 1.0000e-11
Integration weight cutoff        WCut        ... 1.0000e-14
Partially contracted basis set               ... off
Rotationally invariant grid construction     ... off
Angular grids for H and He will be reduced by one unit
Diffuse basis detected: some atoms will have their outermost
                        angular grid increased by 1.

Total number of grid points                  ...    33055
Total number of batches                      ...      520
Average number of points per batch           ...       63
Average number of grid points per atom       ...     4722

--------------------
COSX GRID GENERATION
--------------------

GRIDX 1
-------
General Integration Accuracy     IntAcc      ... 3.816
Radial Grid Type                 RadialGrid  ... OptM3 with GC (2021)
Angular Grid (max. ang.)         AngularGrid ... 1 (Lebedev-50)
Angular grid pruning method      GridPruning ... 4 (adaptive)
Weight generation scheme         WeightScheme... mBecke (2022)
Basis function cutoff            BFCut       ... 1.0000e-11
Integration weight cutoff        WCut        ... 1.0000e-14
Partially contracted basis set               ... on
Rotationally invariant grid construction     ... off
Angular grids for H and He will be reduced by one unit
Diffuse basis detected: some atoms will have their outermost
                        angular grid increased by 1.

Total number of grid points                  ...     4170
Total number of batches                      ...       37
Average number of points per batch           ...      112
Average number of grid points per atom       ...      596
UseSFitting                                  ... on

GRIDX 2
-------
General Integration Accuracy     IntAcc      ... 4.020
Radial Grid Type                 RadialGrid  ... OptM3 with GC (2021)
Angular Grid (max. ang.)         AngularGrid ... 2 (Lebedev-110)
Angular grid pruning method      GridPruning ... 4 (adaptive)
Weight generation scheme         WeightScheme... mBecke (2022)
Basis function cutoff            BFCut       ... 1.0000e-11
Integration weight cutoff        WCut        ... 1.0000e-14
Partially contracted basis set               ... on
Rotationally invariant grid construction     ... off
Angular grids for H and He will be reduced by one unit
Diffuse basis detected: some atoms will have their outermost
                        angular grid increased by 1.

Total number of grid points                  ...    10257
Total number of batches                      ...       84
Average number of points per batch           ...      122
Average number of grid points per atom       ...     1465
UseSFitting                                  ... on

GRIDX 3
-------
General Integration Accuracy     IntAcc      ... 4.338
Radial Grid Type                 RadialGrid  ... OptM3 with GC (2021)
Angular Grid (max. ang.)         AngularGrid ... 3 (Lebedev-194)
Angular grid pruning method      GridPruning ... 4 (adaptive)
Weight generation scheme         WeightScheme... mBecke (2022)
Basis function cutoff            BFCut       ... 1.0000e-11
Integration weight cutoff        WCut        ... 1.0000e-14
Partially contracted basis set               ... on
Rotationally invariant grid construction     ... off
Angular grids for H and He will be reduced by one unit
Diffuse basis detected: some atoms will have their outermost
                        angular grid increased by 1.

Total number of grid points                  ...    23017
Total number of batches                      ...      183
Average number of points per batch           ...      125
Average number of grid points per atom       ...     3288
UseSFitting                                  ... on
Initializing property integral containers    ... done (  0.0 sec)

SHARK setup successfully completed in   0.4 seconds

Maximum memory used throughout the entire STARTUP-calculation: 13.8 MB
[1740999209.397080] [ohm:3198096:0]        ib_iface.c:1059 UCX  ERROR ibv_create_cq(cqe=256) failed: Connection timed out
[1740999209.403248] [ohm:3198100:0]        ib_iface.c:1059 UCX  ERROR ibv_create_cq(cqe=256) failed: Connection timed out
[1740999209.404937] [ohm:3198094:0]        ib_iface.c:1059 UCX  ERROR ibv_create_cq(cqe=256) failed: Connection timed out
[1740999209.410951] [ohm:3198098:0]        ib_iface.c:1059 UCX  ERROR ibv_create_cq(cqe=256) failed: Connection timed out
[1740999209.428349] [ohm:3198093:0]        ib_iface.c:1059 UCX  ERROR ibv_create_cq(cqe=256) failed: Connection timed out
[1740999209.428583] [ohm:3198097:0]        ib_iface.c:1059 UCX  ERROR ibv_create_cq(cqe=256) failed: Connection timed out
[1740999209.429490] [ohm:3198095:0]        ib_iface.c:1059 UCX  ERROR ibv_create_cq(cqe=256) failed: Connection timed out
[1740999209.430285] [ohm:3198101:0]        ib_iface.c:1059 UCX  ERROR ibv_create_cq(cqe=256) failed: Connection timed out
[1740999209.431895] [ohm:3198099:0]        ib_iface.c:1059 UCX  ERROR ibv_create_cq(cqe=256) failed: Connection timed out
[1740999209.440510] [ohm:3198103:0]        ib_iface.c:1059 UCX  ERROR ibv_create_cq(cqe=256) failed: Connection timed out
[1740999209.441373] [ohm:3198107:0]        ib_iface.c:1059 UCX  ERROR ibv_create_cq(cqe=256) failed: Connection timed out
[1740999209.442304] [ohm:3198105:0]        ib_iface.c:1059 UCX  ERROR ibv_create_cq(cqe=256) failed: Connection timed out
[1740999209.442893] [ohm:3198116:0]        ib_iface.c:1059 UCX  ERROR ibv_create_cq(cqe=256) failed: Connection timed out
[1740999209.442888] [ohm:3198121:0]        ib_iface.c:1059 UCX  ERROR ibv_create_cq(cqe=256) failed: Connection timed out
[1740999209.443330] [ohm:3198111:0]        ib_iface.c:1059 UCX  ERROR ibv_create_cq(cqe=256) failed: Connection timed out
[1740999209.459622] [ohm:3198119:0]        ib_iface.c:1059 UCX  ERROR ibv_create_cq(cqe=256) failed: Connection timed out


           ************************************************************
           *        Program running with 16 parallel MPI-processes    *
           *              working on a common directory               *
           ************************************************************
-------------------------------------------------------------------------------
                                 ORCA GUESS
                   Start orbitals & Density for SCF / CASSCF
-------------------------------------------------------------------------------

------------
SCF SETTINGS
------------
Hamiltonian:
 Density Functional     Method          .... DFT(GTOs)
  Functional kind                       .... Exchange-Correlation
  Functional name                       .... wB97M-V exchange-correlation functional
  Functional family                     .... Hybrid MGGA
  Functional refs                              
    [ 0] N. Mardirossian and M. Head-Gordon.,  J. Chem. Phys. 144, 214110 (2016), doi: 10.1063/1.4952647
  Fraction of HF Exchange (short range) .... 0.1500
  Fraction of HF Exchange (long range)  .... 1.0000
  Range separation parameter mu         .... 0.3000
  Functional external parameters        .... 17
    Parameter  0 _cx00      =  8.500000e-01 : u^00 coefficient for exchange
    Parameter  1 _cx01      =  1.007000e+00 : u^01 coefficient for exchange
    Parameter  2 _cx10      =  2.590000e-01 : u^10 coefficient for exchange
    Parameter  3 _css00     =  4.430000e-01 : u^00 coefficient for same-spin correlation
    Parameter  4 _css04     = -1.437000e+00 : u^04 coefficient for same-spin correlation
    Parameter  5 _css10     = -4.535000e+00 : u^10 coefficient for same-spin correlation
    Parameter  6 _css20     = -3.390000e+00 : u^20 coefficient for same-spin correlation
    Parameter  7 _css43     =  4.278000e+00 : u^43 coefficient for same-spin correlation
    Parameter  8 _cos00     =  1.000000e+00 : u^00 coefficient for opposite-spin correlation
    Parameter  9 _cos10     =  1.358000e+00 : u^10 coefficient for opposite-spin correlation
    Parameter 10 _cos20     =  2.924000e+00 : u^20 coefficient for opposite-spin correlation
    Parameter 11 _cos21     = -8.812000e+00 : u^21 coefficient for opposite-spin correlation
    Parameter 12 _cos60     = -1.390000e+00 : u^60 coefficient for opposite-spin correlation
    Parameter 13 _cos61     =  9.142000e+00 : u^61 coefficient for opposite-spin correlation
    Parameter 14 _alpha     =  1.000000e+00 : fraction of HF exchange
    Parameter 15 _beta      = -8.500000e-01 : fraction of short-range exchange
    Parameter 16 _omega     =  3.000000e-01 : range-separation constant
 Long-range corrected/Screened/Range-Separated Hybrid DFT is turned on
   Amount of maximum screened exact exchange              ....  0.850000
   Range separation parameter mu (erf(mu*r12)/r12)        ....  0.300000
 RI-approximation to the Coulomb term is turned on
   Number of AuxJ basis functions       .... 191
   RIJ-COSX (HFX calculated with COS-X)).... on


General Settings:
 Integral files         IntName         .... orca
 Hartree-Fock type      HFTyp           .... UHF
 Total Charge           Charge          ....    0
 Multiplicity           Mult            ....    3
 Number of Electrons    NEL             ....   24
 Basis Dimension        Dim             ....  182
 Nuclear Repulsion      ENuc            ....     75.0681829277 Eh

Convergence Acceleration:
 AO-DIIS                CNVDIIS         .... on
   Start iteration      DIISMaxIt       ....    12
   Startup error        DIISStart       ....  0.200000
   # of expansion vecs  DIISMaxEq       ....     5
   Bias factor          DIISBfac        ....   1.050
   Max. coefficient     DIISMaxC        ....  10.000
 MO-DIIS                CNVKDIIS        .... off
 Trust-Rad. Augm. Hess. CNVTRAH         .... auto
   Auto Start mean grad. ratio tolernc. ....  1.125000
   Auto Start start iteration           ....    50
   Auto Start num. interpolation iter.  ....    10
   Max. Number of Micro iterations      ....    24
   Max. Number of Macro iterations      .... Maxiter - #DIIS iter
   Number of Davidson start vectors     ....     2
   Converg. threshold    (grad. norm)   ....   1.000e-05
   Grad. Scal. Fac. for Micro threshold ....   0.100
   Minimum threshold for Micro iter.    ....   1.000e-02
   NR start threshold (gradient norm)   ....   1.000e-04
   Initial trust radius                 ....   0.400
   Minimum AH scaling param. (alpha)    ....   1.000
   Maximum AH scaling param. (alpha)    .... 1000.000
   Quad. conv. algorithm                .... NR
   White noise on init. David. guess    .... on
   Maximum white noise                  ....   0.010
   Pseudo random numbers                .... off
   Inactive MOs                         .... canonical
   Orbital update algorithm             .... Taylor
   Preconditioner                       .... Diag
   Full preconditioner red. dimension   ....   250
 SOSCF                  CNVSOSCF        .... on
   Start iteration      SOSCFMaxIt      ....   150
   Startup grad/error   SOSCFStart      ....  0.003300
   Hessian update       SOSCFHessUp     .... L-BFGS
 Level Shifting         CNVShift        .... on
   Level shift para.    LevelShift      ....    0.2500
   Turn off err/grad.   ShiftErr        ....    0.0010
 Zerner damping         CNVZerner       .... off
 Static damping         CNVDamp         .... on
   Fraction old density DampFac         ....    0.7000
   Max. Damping (<1)    DampMax         ....    0.9800
   Min. Damping (>=0)   DampMin         ....    0.0000
   Turn off err/grad.   DampErr         ....    0.1000

SCF Procedure:
 Maximum # iterations   MaxIter         ....   125
 SCF integral mode      SCFMode         .... Direct
   Integral package                     .... SHARK and LIBINT hybrid scheme
 Reset frequency        DirectResetFreq ....    20
 Integral Threshold     Thresh          ....  2.500e-11 Eh
 Primitive CutOff       TCut            ....  2.500e-12 Eh

Convergence Tolerance:
 Convergence Check Mode ConvCheckMode   .... Total+1el-Energy
 Convergence forced     ConvForced      .... 1
 Energy Change          TolE            ....  1.000e-08 Eh
 1-El. energy change                    ....  1.000e-05 Eh
 Orbital Gradient       TolG            ....  1.000e-05
 Orbital Rotation angle TolX            ....  1.000e-05
 DIIS Error             TolErr          ....  5.000e-07

------------------------------
INITIAL GUESS: MODEL POTENTIAL
------------------------------
Loading Hartree-Fock densities                     ... done
Calculating cut-offs                               ... done
Initializing the effective Hamiltonian             ... done
Setting up the integral package (SHARK)            ... done
Starting the Coulomb interaction                   ... done (   0.0 sec)
Making the grid                                    ... done (   0.0 sec)
Mapping shells                                     ... done
Starting the XC term evaluation                    ... done (   0.0 sec)
  promolecular density results
     # of electrons  =     23.997216919
     EX              =    -19.542029594
     EC              =     -0.782003129
     EX+EC           =    -20.324032723
Transforming the Hamiltonian                       ... done (   0.0 sec)
Diagonalizing the Hamiltonian                      ... done (   0.0 sec)
Back transforming the eigenvectors                 ... done (   0.0 sec)
Now organizing SCF variables                       ... done
                      ------------------
                      INITIAL GUESS DONE (   0.1 sec)
                      ------------------
             **** ENERGY FILE WAS UPDATED (orca.en.tmp) ****
Finished Guess after   0.5 sec
Maximum memory used throughout the entire GUESS-calculation: 9.7 MB
[1740999210.178464] [ohm:3198178:0]        ib_iface.c:1059 UCX  ERROR ibv_create_cq(cqe=256) failed: Connection timed out
[1740999210.198342] [ohm:3198179:0]        ib_iface.c:1059 UCX  ERROR ibv_create_cq(cqe=256) failed: Connection timed out
[1740999210.198564] [ohm:3198177:0]        ib_iface.c:1059 UCX  ERROR ibv_create_cq(cqe=256) failed: Connection timed out
[1740999210.206863] [ohm:3198181:0]        ib_iface.c:1059 UCX  ERROR ibv_create_cq(cqe=256) failed: Connection timed out
[1740999210.209783] [ohm:3198180:0]        ib_iface.c:1059 UCX  ERROR ibv_create_cq(cqe=256) failed: Connection timed out
[1740999210.209908] [ohm:3198182:0]        ib_iface.c:1059 UCX  ERROR ibv_create_cq(cqe=256) failed: Connection timed out
[1740999210.210514] [ohm:3198186:0]        ib_iface.c:1059 UCX  ERROR ibv_create_cq(cqe=256) failed: Connection timed out
[1740999210.213709] [ohm:3198184:0]        ib_iface.c:1059 UCX  ERROR ibv_create_cq(cqe=256) failed: Connection timed out
[1740999210.215562] [ohm:3198205:0]        ib_iface.c:1059 UCX  ERROR ibv_create_cq(cqe=256) failed: Connection timed out
[1740999210.215670] [ohm:3198191:0]        ib_iface.c:1059 UCX  ERROR ibv_create_cq(cqe=256) failed: Connection timed out
[1740999210.217715] [ohm:3198194:0]        ib_iface.c:1059 UCX  ERROR ibv_create_cq(cqe=256) failed: Connection timed out
[1740999210.218387] [ohm:3198188:0]        ib_iface.c:1059 UCX  ERROR ibv_create_cq(cqe=256) failed: Connection timed out
[1740999210.218385] [ohm:3198193:0]        ib_iface.c:1059 UCX  ERROR ibv_create_cq(cqe=256) failed: Connection timed out
[1740999210.241592] [ohm:3198208:0]        ib_iface.c:1059 UCX  ERROR ibv_create_cq(cqe=256) failed: Connection timed out
[1740999210.246254] [ohm:3198207:0]        ib_iface.c:1059 UCX  ERROR ibv_create_cq(cqe=256) failed: Connection timed out
[1740999210.246392] [ohm:3198199:0]        ib_iface.c:1059 UCX  ERROR ibv_create_cq(cqe=256) failed: Connection timed out


           ************************************************************
           *        Program running with 16 parallel MPI-processes    *
           *              working on a common directory               *
           ************************************************************

-------------------------------------------------------------------------------------------
                                      ORCA LEAN-SCF
                              memory conserving SCF solver
-------------------------------------------------------------------------------------------

----------------------------------------D-I-I-S--------------------------------------------
Iteration    Energy (Eh)           Delta-E    RMSDP     MaxDP     DIISErr   Damp  Time(sec)
-------------------------------------------------------------------------------------------
               ***  Starting incremental Fock matrix formation  ***
    1    -153.5441407129664526     0.00e+00  1.49e-03  1.28e-01  1.02e-01  0.700   0.4
    2    -153.5795724719160376    -3.54e-02  1.87e-03  2.06e-01  6.04e-02  0.700   0.3
                               ***Turning on AO-DIIS***
    3    -153.5983515859642807    -1.88e-02  1.61e-03  1.92e-01  3.05e-02  0.700   0.3
    4    -153.6097658288140337    -1.14e-02  4.56e-03  5.68e-01  2.12e-02  0.000   0.3
    5    -153.6358589075925352    -2.61e-02  1.49e-03  1.97e-01  8.44e-03  0.000   0.3
    6    -153.6365471992136236    -6.88e-04  1.38e-03  1.77e-01  5.97e-03  0.000   0.3
                              *** Initializing SOSCF ***
---------------------------------------S-O-S-C-F--------------------------------------
Iteration    Energy (Eh)           Delta-E    RMSDP     MaxDP     MaxGrad    Time(sec)
--------------------------------------------------------------------------------------
    7    -153.6370593304233694    -5.12e-04  9.19e-04  1.06e-01  3.23e-03     0.3
               *** Restarting incremental Fock matrix formation ***
    8    -153.6373536693527058    -2.94e-04  6.88e-04  5.40e-02  2.68e-03     0.4
    9    -153.6375385207313684    -1.85e-04  2.28e-03  1.51e-01  1.87e-03     0.4
   10    -153.6377565303054098    -2.18e-04  3.55e-04  2.02e-02  1.15e-03     0.4
   11    -153.6377942175813587    -3.77e-05  1.11e-04  6.91e-03  1.06e-03     0.4
   12    -153.6378006647393590    -6.45e-06  1.25e-04  8.86e-03  3.54e-04     0.3
   13    -153.6378030004861444    -2.34e-06  1.36e-04  7.35e-03  1.04e-04     0.3
   14    -153.6378036347005036    -6.34e-07  5.80e-05  3.69e-03  9.50e-05     0.4
   15    -153.6378038292375550    -1.95e-07  8.09e-05  6.06e-03  5.12e-05     0.3
   16    -153.6378039588996103    -1.30e-07  5.75e-05  4.93e-03  3.10e-05     0.3
   17    -153.6378040096685709    -5.08e-08  2.77e-05  2.62e-03  3.08e-05     0.3
   18    -153.6378040293010372    -1.96e-08  7.95e-06  6.51e-04  1.23e-05     0.3
   19    -153.6378040343113867    -5.01e-09  4.36e-06  3.66e-04  4.79e-06     0.3
                 **** Energy Check signals convergence ****

               *****************************************************
               *                     SUCCESS                       *
               *           SCF CONVERGED AFTER  19 CYCLES          *
               *****************************************************

Recomputing exchange energy using gridx3       ... done (    0.431 sec)
Old exchange energy                            :     -6.178580005 Eh
New exchange energy                            :     -6.178571771 Eh
Exchange energy change after final integration :      0.000008234 Eh
Total energy after final integration           :   -153.637795800 Eh
             **** ENERGY FILE WAS UPDATED (orca.en.tmp) ****

----------------
TOTAL SCF ENERGY
----------------

Total Energy       :       -153.63779580023905 Eh           -4180.69697 eV

Components:
Nuclear Repulsion  :         75.06818292767373 Eh            2042.70911 eV
Electronic Energy  :       -228.70598696198510 Eh           -6223.40630 eV
One Electron Energy:       -355.53246023248869 Eh           -9674.53009 eV
Two Electron Energy:        126.82647327050360 Eh            3451.12379 eV

Virial components:
Potential Energy   :       -307.35034870699371 Eh           -8363.42818 eV
Kinetic Energy     :        153.71255290675469 Eh            4182.73121 eV
Virial Ratio       :          1.99951365646395

DFT components:
N(Alpha)           :       12.999602001562 electrons
N(Beta)            :       11.000001921134 electrons
N(Total)           :       23.999603922696 electrons
E(XC)              :      -14.731685531795 Eh       

---------------
SCF CONVERGENCE
---------------

  Last Energy change         ...    5.0103e-09  Tolerance :   1.0000e-08
  Last MAX-Density change    ...    3.6631e-04  Tolerance :   1.0000e-07
  Last RMS-Density change    ...    4.3608e-06  Tolerance :   5.0000e-09
  Last DIIS Error            ...    3.2269e-03  Tolerance :   5.0000e-07
  Last Orbital Gradient      ...    4.7906e-06  Tolerance :   1.0000e-05
  Last Orbital Rotation      ...    2.9008e-05  Tolerance :   1.0000e-05


----------------------
UHF SPIN CONTAMINATION
----------------------

Warning: in a DFT calculation there is little theoretical justification to 
         calculate <S**2> as in Hartree-Fock theory. We will do it anyways
         but you should keep in mind that the values have only limited relevance

Expectation value of <S**2>     :     2.005646
Ideal value S*(S+1) for S=1.0   :     2.000000
Deviation                       :     0.005646

----------------
ORBITAL ENERGIES
----------------
                 SPIN UP ORBITALS
  NO   OCC          E(Eh)            E(eV) 
   0   1.0000     -19.476230      -529.9752 
   1   1.0000     -10.426939      -283.7314 
   2   1.0000     -10.374336      -282.3000 
   3   1.0000      -1.301430       -35.4137 
   4   1.0000      -0.867013       -23.5926 
   5   1.0000      -0.784882       -21.3577 
   6   1.0000      -0.692566       -18.8457 
   7   1.0000      -0.655125       -17.8269 
   8   1.0000      -0.577403       -15.7119 
   9   1.0000      -0.511552       -13.9200 
  10   1.0000      -0.502860       -13.6835 
  11   1.0000      -0.476302       -12.9608 
  12   1.0000      -0.141462        -3.8494 
  13   0.0000       0.035915         0.9773 
  14   0.0000       0.060104         1.6355 
  15   0.0000       0.069946         1.9033 
  16   0.0000       0.087110         2.3704 
  17   0.0000       0.108399         2.9497 
  18   0.0000       0.129099         3.5130 
  19   0.0000       0.135010         3.6738 
  20   0.0000       0.142608         3.8806 
  21   0.0000       0.155956         4.2438 
  22   0.0000       0.195413         5.3175 
  23   0.0000       0.199112         5.4181 

                 SPIN DOWN ORBITALS
  NO   OCC          E(Eh)            E(eV) 
   0   1.0000     -19.443566      -529.0863 
   1   1.0000     -10.427005      -283.7332 
   2   1.0000     -10.366672      -282.0915 
   3   1.0000      -1.235122       -33.6094 
   4   1.0000      -0.833764       -22.6879 
   5   1.0000      -0.766711       -20.8633 
   6   1.0000      -0.636243       -17.3131 
   7   1.0000      -0.623522       -16.9669 
   8   1.0000      -0.538986       -14.6666 
   9   1.0000      -0.488342       -13.2885 
  10   1.0000      -0.447626       -12.1805 
  11   0.0000      -0.122107        -3.3227 
  12   0.0000       0.032924         0.8959 
  13   0.0000       0.056563         1.5391 
  14   0.0000       0.064273         1.7490 
  15   0.0000       0.065718         1.7883 
  16   0.0000       0.106836         2.9072 
  17   0.0000       0.113223         3.0809 
  18   0.0000       0.126792         3.4502 
  19   0.0000       0.146246         3.9796 
  20   0.0000       0.151666         4.1271 
  21   0.0000       0.163201         4.4409 
*Only the first 10 virtual orbitals were printed.

                    ********************************
                    * MULLIKEN POPULATION ANALYSIS *
                    ********************************

--------------------------------------------
MULLIKEN ATOMIC CHARGES AND SPIN POPULATIONS
--------------------------------------------
   0 O :   -0.278921    1.282831
   1 C :    0.137465   -0.168099
   2 C :   -0.490937    0.551327
   3 H :    0.164442    0.066233
   4 H :    0.164493    0.066305
   5 H :    0.151710    0.100708
   6 H :    0.151747    0.100694
Sum of atomic charges         :   -0.0000000
Sum of atomic spin populations:    2.0000000

-----------------------------------------------------
MULLIKEN REDUCED ORBITAL CHARGES AND SPIN POPULATIONS
-----------------------------------------------------
CHARGE
  0 O s       :     4.082735  s :     4.082735
      pz      :     1.079992  p :     4.150253
      px      :     1.572673
      py      :     1.497587
      dz2     :     0.005760  d :     0.044173
      dxz     :    -0.000096
      dyz     :     0.009196
      dx2y2   :     0.012047
      dxy     :     0.017266
      f0      :     0.000182  f :     0.001759
      f+1     :     0.000079
      f-1     :     0.000282
      f+2     :     0.000084
      f-2     :     0.000182
      f+3     :     0.000423
      f-3     :     0.000527

  1 C s       :     3.240257  s :     3.240257
      pz      :     1.088714  p :     2.535390
      px      :     0.909076
      py      :     0.537600
      dz2     :     0.023985  d :     0.075250
      dxz     :    -0.005454
      dyz     :     0.012037
      dx2y2   :     0.030196
      dxy     :     0.014486
      f0      :     0.001203  f :     0.011637
      f+1     :     0.000867
      f-1     :     0.000823
      f+2     :     0.000927
      f-2     :     0.001234
      f+3     :     0.003357
      f-3     :     0.003226

  2 C s       :     3.508971  s :     3.508971
      pz      :     1.178967  p :     2.885098
      px      :     0.828744
      py      :     0.877388
      dz2     :     0.021805  d :     0.087707
      dxz     :    -0.024801
      dyz     :     0.001031
      dx2y2   :     0.052927
      dxy     :     0.036744
      f0      :     0.000862  f :     0.009160
      f+1     :     0.000718
      f-1     :     0.000968
      f+2     :     0.000833
      f-2     :     0.000814
      f+3     :     0.002918
      f-3     :     0.002046

  3 H s       :     0.774535  s :     0.774535
      pz      :     0.016002  p :     0.058469
      px      :     0.016896
      py      :     0.025571
      dz2     :     0.000763  d :     0.002554
      dxz     :     0.000625
      dyz     :     0.000515
      dx2y2   :     0.000323
      dxy     :     0.000328

  4 H s       :     0.774504  s :     0.774504
      pz      :     0.015966  p :     0.058448
      px      :     0.016910
      py      :     0.025573
      dz2     :     0.000763  d :     0.002555
      dxz     :     0.000626
      dyz     :     0.000516
      dx2y2   :     0.000324
      dxy     :     0.000327

  5 H s       :     0.719318  s :     0.719318
      pz      :     0.019369  p :     0.126509
      px      :     0.012313
      py      :     0.094826
      dz2     :     0.000695  d :     0.002463
      dxz     :     0.000525
      dyz     :     0.000686
      dx2y2   :     0.000259
      dxy     :     0.000297

  6 H s       :     0.719307  s :     0.719307
      pz      :     0.019331  p :     0.126482
      px      :     0.012335
      py      :     0.094815
      dz2     :     0.000695  d :     0.002464
      dxz     :     0.000526
      dyz     :     0.000687
      dx2y2   :     0.000259
      dxy     :     0.000297


SPIN
  0 O s       :     0.159333  s :     0.159333
      pz      :     0.855303  p :     1.115553
      px      :     0.070334
      py      :     0.189915
      dz2     :     0.001237  d :     0.008118
      dxz     :    -0.000671
      dyz     :    -0.005420
      dx2y2   :     0.006512
      dxy     :     0.006460
      f0      :    -0.000067  f :    -0.000174
      f+1     :    -0.000057
      f-1     :    -0.000109
      f+2     :    -0.000002
      f-2     :     0.000004
      f+3     :     0.000043
      f-3     :     0.000013

  1 C s       :    -0.016615  s :    -0.016615
      pz      :     0.003901  p :    -0.178568
      px      :    -0.007820
      py      :    -0.174648
      dz2     :     0.026421  d :     0.024136
      dxz     :     0.000170
      dyz     :     0.011563
      dx2y2   :     0.000648
      dxy     :    -0.014665
      f0      :     0.000523  f :     0.002948
      f+1     :     0.000011
      f-1     :     0.000008
      f+2     :     0.000571
      f-2     :     0.000540
      f+3     :     0.001366
      f-3     :    -0.000071

  2 C s       :     0.095972  s :     0.095972
      pz      :     0.032723  p :     0.401797
      px      :     0.036099
      py      :     0.332975
      dz2     :     0.012602  d :     0.051623
      dxz     :    -0.002232
      dyz     :     0.000301
      dx2y2   :     0.029125
      dxy     :     0.011825
      f0      :     0.000191  f :     0.001936
      f+1     :    -0.000083
      f-1     :     0.000549
      f+2     :     0.000263
      f-2     :     0.000305
      f+3     :     0.000705
      f-3     :     0.000005

  3 H s       :     0.045636  s :     0.045636
      pz      :     0.000765  p :     0.020632
      px      :     0.001443
      py      :     0.018424
      dz2     :    -0.000006  d :    -0.000035
      dxz     :     0.000007
      dyz     :    -0.000038
      dx2y2   :     0.000010
      dxy     :    -0.000008

  4 H s       :     0.045718  s :     0.045718
      pz      :     0.000758  p :     0.020622
      px      :     0.001451
      py      :     0.018413
      dz2     :    -0.000006  d :    -0.000035
      dxz     :     0.000007
      dyz     :    -0.000038
      dx2y2   :     0.000010
      dxy     :    -0.000008

  5 H s       :     0.010637  s :     0.010637
      pz      :     0.002843  p :     0.089641
      px      :     0.000980
      py      :     0.085818
      dz2     :     0.000013  d :     0.000430
      dxz     :     0.000005
      dyz     :     0.000316
      dx2y2   :     0.000011
      dxy     :     0.000085

  6 H s       :     0.010650  s :     0.010650
      pz      :     0.002842  p :     0.089614
      px      :     0.000982
      py      :     0.085790
      dz2     :     0.000013  d :     0.000430
      dxz     :     0.000005
      dyz     :     0.000316
      dx2y2   :     0.000011
      dxy     :     0.000085



                     *******************************
                     * LOEWDIN POPULATION ANALYSIS *
                     *******************************

-------------------------------------------
LOEWDIN ATOMIC CHARGES AND SPIN POPULATIONS
-------------------------------------------
   0 O :    0.115889    1.103969
   1 C :   -0.030569    0.130879
   2 C :   -0.003676    0.420202
   3 H :    0.021207    0.048976
   4 H :    0.021222    0.049036
   5 H :   -0.062044    0.123467
   6 H :   -0.062029    0.123472

----------------------------------------------------
LOEWDIN REDUCED ORBITAL CHARGES AND SPIN POPULATIONS
----------------------------------------------------
CHARGE
  0 O s       :     3.440803  s :     3.440803
      pz      :     1.002389  p :     4.014733
      px      :     1.470249
      py      :     1.542095
      dz2     :     0.036757  d :     0.422049
      dxz     :     0.050221
      dyz     :     0.081351
      dx2y2   :     0.116488
      dxy     :     0.137232
      f0      :     0.000663  f :     0.006526
      f+1     :     0.000238
      f-1     :     0.001035
      f+2     :     0.000198
      f-2     :     0.000881
      f+3     :     0.001135
      f-3     :     0.002376

  1 C s       :     2.647900  s :     2.647900
      pz      :     0.911174  p :     2.556725
      px      :     0.929051
      py      :     0.716500
      dz2     :     0.097940  d :     0.738145
      dxz     :     0.205339
      dyz     :     0.059560
      dx2y2   :     0.202628
      dxy     :     0.172678
      f0      :     0.007872  f :     0.087799
      f+1     :     0.007917
      f-1     :     0.009302
      f+2     :     0.007069
      f-2     :     0.006373
      f+3     :     0.023872
      f-3     :     0.025394

  2 C s       :     2.670673  s :     2.670673
      pz      :     0.925669  p :     2.581013
      px      :     0.879262
      py      :     0.776081
      dz2     :     0.106020  d :     0.682819
      dxz     :     0.184405
      dyz     :     0.035912
      dx2y2   :     0.197648
      dxy     :     0.158835
      f0      :     0.005846  f :     0.069172
      f+1     :     0.007436
      f-1     :     0.008552
      f+2     :     0.005518
      f-2     :     0.003188
      f+3     :     0.022480
      f-3     :     0.016151

  3 H s       :     0.682257  s :     0.682257
      pz      :     0.114301  p :     0.266591
      px      :     0.081568
      py      :     0.070722
      dz2     :     0.009301  d :     0.029946
      dxz     :     0.008663
      dyz     :     0.005882
      dx2y2   :     0.003403
      dxy     :     0.002697

  4 H s       :     0.682202  s :     0.682202
      pz      :     0.114291  p :     0.266632
      px      :     0.081584
      py      :     0.070758
      dz2     :     0.009296  d :     0.029944
      dxz     :     0.008659
      dyz     :     0.005889
      dx2y2   :     0.003404
      dxy     :     0.002695

  5 H s       :     0.690103  s :     0.690103
      pz      :     0.115479  p :     0.341032
      px      :     0.076648
      py      :     0.148905
      dz2     :     0.009146  d :     0.030909
      dxz     :     0.008632
      dyz     :     0.007654
      dx2y2   :     0.002842
      dxy     :     0.002636

  6 H s       :     0.690079  s :     0.690079
      pz      :     0.115497  p :     0.341044
      px      :     0.076655
      py      :     0.148892
      dz2     :     0.009151  d :     0.030906
      dxz     :     0.008628
      dyz     :     0.007661
      dx2y2   :     0.002837
      dxy     :     0.002629


SPIN
  0 O s       :     0.090652  s :     0.090652
      pz      :     0.757560  p :     0.976461
      px      :     0.071456
      py      :     0.147446
      dz2     :     0.006482  d :     0.036168
      dxz     :    -0.001394
      dyz     :     0.013499
      dx2y2   :     0.001232
      dxy     :     0.016349
      f0      :     0.000150  f :     0.000687
      f+1     :     0.000064
      f-1     :     0.000242
      f+2     :     0.000025
      f-2     :     0.000002
      f+3     :     0.000199
      f-3     :     0.000004

  1 C s       :     0.000955  s :     0.000955
      pz      :     0.011629  p :     0.018126
      px      :     0.007515
      py      :    -0.001018
      dz2     :     0.007006  d :     0.091391
      dxz     :     0.014766
      dyz     :     0.056623
      dx2y2   :     0.003773
      dxy     :     0.009221
      f0      :     0.003316  f :     0.020407
      f+1     :     0.000417
      f-1     :     0.000603
      f+2     :     0.004434
      f-2     :     0.003041
      f+3     :     0.008779
      f-3     :    -0.000182

  2 C s       :     0.020426  s :     0.020426
      pz      :     0.019881  p :     0.269000
      px      :     0.010756
      py      :     0.238363
      dz2     :     0.011914  d :     0.115841
      dxz     :     0.003783
      dyz     :     0.030340
      dx2y2   :     0.036910
      dxy     :     0.032894
      f0      :     0.001242  f :     0.014934
      f+1     :     0.000302
      f-1     :     0.001840
      f+2     :     0.002115
      f-2     :     0.001436
      f+3     :     0.008185
      f-3     :    -0.000185

  3 H s       :     0.026075  s :     0.026075
      pz      :     0.000982  p :     0.023220
      px      :    -0.000017
      py      :     0.022256
      dz2     :    -0.000039  d :    -0.000319
      dxz     :     0.000047
      dyz     :    -0.000285
      dx2y2   :     0.000096
      dxy     :    -0.000138

  4 H s       :     0.026118  s :     0.026118
      pz      :     0.000982  p :     0.023237
      px      :    -0.000017
      py      :     0.022272
      dz2     :    -0.000040  d :    -0.000319
      dxz     :     0.000047
      dyz     :    -0.000285
      dx2y2   :     0.000096
      dxy     :    -0.000138

  5 H s       :     0.009602  s :     0.009602
      pz      :     0.002198  p :     0.109341
      px      :     0.000698
      py      :     0.106444
      dz2     :     0.000226  d :     0.004524
      dxz     :     0.000273
      dyz     :     0.003285
      dx2y2   :     0.000048
      dxy     :     0.000692

  6 H s       :     0.009620  s :     0.009620
      pz      :     0.002201  p :     0.109329
      px      :     0.000700
      py      :     0.106427
      dz2     :     0.000227  d :     0.004523
      dxz     :     0.000273
      dyz     :     0.003286
      dx2y2   :     0.000048
      dxy     :     0.000689



                      *****************************
                      * MAYER POPULATION ANALYSIS *
                      *****************************

  NA   - Mulliken gross atomic population
  ZA   - Total nuclear charge
  QA   - Mulliken gross atomic charge
  VA   - Mayer's total valence
  BVA  - Mayer's bonded valence
  FA   - Mayer's free valence

  ATOM       NA         ZA         QA         VA         BVA        FA
  0 O      8.2789     8.0000    -0.2789     2.5094     1.5972     0.9122
  1 C      5.8625     6.0000     0.1375     3.0986     3.0833     0.0153
  2 C      6.4909     6.0000    -0.4909     3.5375     3.3539     0.1836
  3 H      0.8356     1.0000     0.1644     1.0715     1.0696     0.0020
  4 H      0.8355     1.0000     0.1645     1.0714     1.0694     0.0020
  5 H      0.8483     1.0000     0.1517     1.1645     1.1541     0.0104
  6 H      0.8483     1.0000     0.1517     1.1642     1.1539     0.0104

  Mayer bond orders larger than 0.100000
B(  0-O ,  1-C ) :   0.6968 B(  0-O ,  2-C ) :   0.6317 B(  1-C ,  2-C ) :   0.5806 
B(  1-C ,  3-H ) :   0.9874 B(  1-C ,  4-H ) :   0.9875 B(  2-C ,  5-H ) :   1.0817 
B(  2-C ,  6-H ) :   1.0816 

-------
TIMINGS
-------

Total SCF time: 0 days 0 hours 0 min 7 sec 

Total time                  ....       7.224 sec
Sum of individual times     ....       7.205 sec  ( 99.7%)

SCF preparation             ....       0.422 sec  (  5.8%)
Fock matrix formation       ....       6.104 sec  ( 84.5%)
  Startup                   ....       0.040 sec  (  0.7% of F)
  Split-RI-J                ....       0.267 sec  (  4.4% of F)
  Chain of spheres X        ....       3.951 sec  ( 64.7% of F)
  XC integration            ....       1.708 sec  ( 28.0% of F)
    XC Preparation          ....       0.000 sec  (  0.0% of XC)
    Basis function eval.    ....       0.123 sec  (  7.2% of XC)
    Density eval.           ....       0.531 sec  ( 31.1% of XC)
    XC-Functional eval.     ....       0.048 sec  (  2.8% of XC)
    XC-Potential eval.      ....       0.854 sec  ( 50.0% of XC)
Diagonalization             ....       0.000 sec  (  0.0%)
Density matrix formation    ....       0.093 sec  (  1.3%)
Total Energy calculation    ....       0.060 sec  (  0.8%)
Population analysis         ....       0.019 sec  (  0.3%)
Orbital Transformation      ....       0.050 sec  (  0.7%)
Orbital Orthonormalization  ....       0.000 sec  (  0.0%)
DIIS solution               ....       0.260 sec  (  3.6%)
SOSCF solution              ....       0.195 sec  (  2.7%)
Finished LeanSCF after   7.2 sec

Maximum memory used throughout the entire LEANSCF-calculation: 14.8 MB
[1740999217.754971] [ohm:3198293:0]        ib_iface.c:1059 UCX  ERROR ibv_create_cq(cqe=256) failed: Connection timed out
[1740999217.755074] [ohm:3198291:0]        ib_iface.c:1059 UCX  ERROR ibv_create_cq(cqe=256) failed: Connection timed out
[1740999217.755225] [ohm:3198289:0]        ib_iface.c:1059 UCX  ERROR ibv_create_cq(cqe=256) failed: Connection timed out
[1740999217.762607] [ohm:3198295:0]        ib_iface.c:1059 UCX  ERROR ibv_create_cq(cqe=256) failed: Connection timed out
[1740999217.762676] [ohm:3198298:0]        ib_iface.c:1059 UCX  ERROR ibv_create_cq(cqe=256) failed: Connection timed out
[1740999217.763403] [ohm:3198302:0]        ib_iface.c:1059 UCX  ERROR ibv_create_cq(cqe=256) failed: Connection timed out
[1740999217.764225] [ohm:3198294:0]        ib_iface.c:1059 UCX  ERROR ibv_create_cq(cqe=256) failed: Connection timed out
[1740999217.764265] [ohm:3198292:0]        ib_iface.c:1059 UCX  ERROR ibv_create_cq(cqe=256) failed: Connection timed out
[1740999217.764417] [ohm:3198288:0]        ib_iface.c:1059 UCX  ERROR ibv_create_cq(cqe=256) failed: Connection timed out
[1740999217.767000] [ohm:3198290:0]        ib_iface.c:1059 UCX  ERROR ibv_create_cq(cqe=256) failed: Connection timed out
[1740999217.767063] [ohm:3198296:0]        ib_iface.c:1059 UCX  ERROR ibv_create_cq(cqe=256) failed: Connection timed out
[1740999217.782122] [ohm:3198299:0]        ib_iface.c:1059 UCX  ERROR ibv_create_cq(cqe=256) failed: Connection timed out
[1740999217.782374] [ohm:3198304:0]        ib_iface.c:1059 UCX  ERROR ibv_create_cq(cqe=256) failed: Connection timed out
[1740999217.785757] [ohm:3198316:0]        ib_iface.c:1059 UCX  ERROR ibv_create_cq(cqe=256) failed: Connection timed out
[1740999217.787579] [ohm:3198309:0]        ib_iface.c:1059 UCX  ERROR ibv_create_cq(cqe=256) failed: Connection timed out
[1740999217.787930] [ohm:3198313:0]        ib_iface.c:1059 UCX  ERROR ibv_create_cq(cqe=256) failed: Connection timed out


           ************************************************************
           *        Program running with 16 parallel MPI-processes    *
           *              working on a common directory               *
           ************************************************************

------------------------------------------------------------------------------
                         ORCA PROPERTY INTEGRAL CALCULATIONS
------------------------------------------------------------------------------

GBWName                                   ... orca.gbw
Number of atoms                           ...      7
Number of basis functions                 ...    182
Max core memory                           ...   1024 MB

Dipole integrals                          ... YES
Quadrupole integrals                      ...  NO
Linear momentum integrals                 ... YES
Angular momentum integrals                ... YES
Higher moments length integrals           ...  NO
Higher moments velocity integrals         ...  NO
Kinetic energy integrals                  ...  NO
GIAO right hand sides                     ...  NO
GIAO dipole derivative integrals          ...  NO
SOC integrals                             ...  NO
EPR diamagnetic integrals (GIAO)          ...  NO
EPR gauge integrals                       ...  NO
Field gradient integrals                  ...  NO (   0 nuclei)
Spin-dipole/Fermi contact integrals       ...  NO (   0 nuclei)
Contact density integrals                 ...  NO (   0 nuclei)
Nucleus-orbit integrals                   ...  NO (   0 nuclei)
Geometric perturbations                   ...  NO (   7 nuclei)

Choice of electric origin   ... Center of mass
Position of electric origin ... (  0.0234, -0.0171, -0.0001) 
Choice of magnetic origin   ... GIAO
Position of magnetic origin ... (  0.0000,  0.0000,  0.0000) 

Calculating integrals                     ... Electric Dipole (Length)     done (  0.0 sec)
Calculating integrals                     ... Linear Momentum              done (  0.0 sec)
Calculating integrals                     ... Angular Momentum  (ElOri)    done (  0.0 sec)

Property integrals calculated in   0.0 sec

Maximum memory used throughout the entire PROPINT-calculation: 10.4 MB
[1740999218.444724] [ohm:3198384:0]        ib_iface.c:1059 UCX  ERROR ibv_create_cq(cqe=256) failed: Connection timed out
[1740999218.444720] [ohm:3198386:0]        ib_iface.c:1059 UCX  ERROR ibv_create_cq(cqe=256) failed: Connection timed out
[1740999218.449415] [ohm:3198388:0]        ib_iface.c:1059 UCX  ERROR ibv_create_cq(cqe=256) failed: Connection timed out
[1740999218.454341] [ohm:3198385:0]        ib_iface.c:1059 UCX  ERROR ibv_create_cq(cqe=256) failed: Connection timed out
[1740999218.454438] [ohm:3198383:0]        ib_iface.c:1059 UCX  ERROR ibv_create_cq(cqe=256) failed: Connection timed out
[1740999218.454795] [ohm:3198387:0]        ib_iface.c:1059 UCX  ERROR ibv_create_cq(cqe=256) failed: Connection timed out
[1740999218.474866] [ohm:3198393:0]        ib_iface.c:1059 UCX  ERROR ibv_create_cq(cqe=256) failed: Connection timed out
[1740999218.474863] [ohm:3198400:0]        ib_iface.c:1059 UCX  ERROR ibv_create_cq(cqe=256) failed: Connection timed out
[1740999218.477784] [ohm:3198395:0]        ib_iface.c:1059 UCX  ERROR ibv_create_cq(cqe=256) failed: Connection timed out
[1740999218.478055] [ohm:3198389:0]        ib_iface.c:1059 UCX  ERROR ibv_create_cq(cqe=256) failed: Connection timed out
[1740999218.479308] [ohm:3198390:0]        ib_iface.c:1059 UCX  ERROR ibv_create_cq(cqe=256) failed: Connection timed out
[1740999218.481835] [ohm:3198413:0]        ib_iface.c:1059 UCX  ERROR ibv_create_cq(cqe=256) failed: Connection timed out
[1740999218.482357] [ohm:3198391:0]        ib_iface.c:1059 UCX  ERROR ibv_create_cq(cqe=256) failed: Connection timed out
[1740999218.483245] [ohm:3198409:0]        ib_iface.c:1059 UCX  ERROR ibv_create_cq(cqe=256) failed: Connection timed out
[1740999218.484758] [ohm:3198405:0]        ib_iface.c:1059 UCX  ERROR ibv_create_cq(cqe=256) failed: Connection timed out
[1740999218.484798] [ohm:3198411:0]        ib_iface.c:1059 UCX  ERROR ibv_create_cq(cqe=256) failed: Connection timed out


           ************************************************************
           *        Program running with 16 parallel MPI-processes    *
           *              working on a common directory               *
           ************************************************************
------------------------------------------------------------------------------
                        ORCA TD-DFT/TDA CALCULATION
------------------------------------------------------------------------------

Input orbitals are from        ... orca.gbw
CI-vector output               ... orca.cis
Solver                         ... FN-2001
Tamm-Dancoff approximation     ... operative
CIS-Integral strategy          ... AO-integrals
Integral handling              ... AO integral Direct
Max. core memory used          ... 512 MB
Reference state                ... UHF
Follow IRoot                   ... off
Number of operators            ... 2
Orbital ranges used for CIS calculation:
 Operator 0:  Orbitals   3... 12  to  11...181

-------------------
XC-INTEGRATION GRID
-------------------

General Integration Accuracy     IntAcc      ... 3.467
Radial Grid Type                 RadialGrid  ... OptM3 with GC (2021)
Angular Grid (max. ang.)         AngularGrid ... 1 (Lebedev-50)
Angular grid pruning method      GridPruning ... 4 (adaptive)
Weight generation scheme         WeightScheme... mBecke (2022)
Basis function cutoff            BFCut       ... 1.0000e-11
Integration weight cutoff        WCut        ... 1.0000e-14
Partially contracted basis set               ... off
Rotationally invariant grid construction     ... off
Angular grids for H and He will be reduced by one unit
Diffuse basis detected: some atoms will have their outermost
                        angular grid increased by 1.

Total number of grid points                  ...     4732
Total number of batches                      ...       76
Average number of points per batch           ...       62
Average number of grid points per atom       ...      676

---------------------
COSX-INTEGRATION GRID
---------------------

General Integration Accuracy     IntAcc      ... 3.067
Radial Grid Type                 RadialGrid  ... OptM3 with GC (2021)
Angular Grid (max. ang.)         AngularGrid ... 1 (Lebedev-50)
Angular grid pruning method      GridPruning ... 4 (adaptive)
Weight generation scheme         WeightScheme... mBecke (2022)
Basis function cutoff            BFCut       ... 1.0000e-11
Integration weight cutoff        WCut        ... 1.0000e-14
Partially contracted basis set               ... on
Rotationally invariant grid construction     ... off
Angular grids for H and He will be reduced by one unit
Diffuse basis detected: some atoms will have their outermost
                        angular grid increased by 1.

Total number of grid points                  ...     2153
Total number of batches                      ...       22
Average number of points per batch           ...       97
Average number of grid points per atom       ...      308

---------------
TD-DFT XC SETUP
---------------

DFT calculation                         ... on
Name of the grid file                   ... orca.grid_cis.tmp
RI-approximation                        ... on
Aux-basis dimension                     ... 0
Functional (TD-DFT)
  Functional kind                       .... Exchange-Correlation
  Functional name                       .... wB97M-V exchange-correlation functional
  Functional family                     .... Hybrid MGGA
  Functional refs                              
    [ 0] N. Mardirossian and M. Head-Gordon.,  J. Chem. Phys. 144, 214110 (2016), doi: 10.1063/1.4952647
  Fraction of HF Exchange (short range) .... 0.1500
  Fraction of HF Exchange (long range)  .... 1.0000
  Range separation parameter mu         .... 0.3000
  Functional external parameters        .... 17
    Parameter  0 _cx00      =  8.500000e-01 : u^00 coefficient for exchange
    Parameter  1 _cx01      =  1.007000e+00 : u^01 coefficient for exchange
    Parameter  2 _cx10      =  2.590000e-01 : u^10 coefficient for exchange
    Parameter  3 _css00     =  4.430000e-01 : u^00 coefficient for same-spin correlation
    Parameter  4 _css04     = -1.437000e+00 : u^04 coefficient for same-spin correlation
    Parameter  5 _css10     = -4.535000e+00 : u^10 coefficient for same-spin correlation
    Parameter  6 _css20     = -3.390000e+00 : u^20 coefficient for same-spin correlation
    Parameter  7 _css43     =  4.278000e+00 : u^43 coefficient for same-spin correlation
    Parameter  8 _cos00     =  1.000000e+00 : u^00 coefficient for opposite-spin correlation
    Parameter  9 _cos10     =  1.358000e+00 : u^10 coefficient for opposite-spin correlation
    Parameter 10 _cos20     =  2.924000e+00 : u^20 coefficient for opposite-spin correlation
    Parameter 11 _cos21     = -8.812000e+00 : u^21 coefficient for opposite-spin correlation
    Parameter 12 _cos60     = -1.390000e+00 : u^60 coefficient for opposite-spin correlation
    Parameter 13 _cos61     =  9.142000e+00 : u^61 coefficient for opposite-spin correlation
    Parameter 14 _alpha     =  1.000000e+00 : fraction of HF exchange
    Parameter 15 _beta      = -8.500000e-01 : fraction of short-range exchange
    Parameter 16 _omega     =  3.000000e-01 : range-separation constant
Hybrid DFT                              ... on
   Exchange mixing (TD-DFT)             ...  0.150
   GGA exch. scaling (TD-DFT)           ...  0.000
   GGA corr. scaling (TD-DFT)           ...  1.000
Range-Separated Exchange                ... on
   Range Range separation parameter mu  .... 0.300
   Max. amount of RS exchange (TD-DFT)  ...  0.850

Building densities             ... done
Calculating rho(r) on the grid ... done
Building xc-kernel on the grid ... done
                    *** TD-DFT CALCULATION INITIALIZED ***

------------------------
DAVIDSON-DIAGONALIZATION
------------------------

Dimension of the eigenvalue problem            ...   1710
Number of roots to be determined               ...      2
Maximum size of the expansion space            ...     20
Maximum number of iterations                   ...    100
Convergence tolerance for the residual         ...    2.500e-07
Convergence tolerance for the energies         ...    2.500e-07
Orthogonality tolerance                        ...    1.000e-14
Level Shift                                    ...    0.000e+00
Constructing the preconditioner                ... o.k.
Building the initial guess                     ... o.k.
Number of trial vectors determined             ...     20


                       ****Iteration    0****
   Time for iteration     :  TOTAL=0.2 TRAFO=0.0 RIJ=0.0 COSX=0.2
   Size of expansion space: 6
   Lowest Energy          :    -0.224048557564
   Maximum Energy change  :     0.224048557564 (vector 0)
   Maximum residual norm  :     0.001963315157

                       ****Iteration    1****
   Time for iteration     :  TOTAL=0.1 TRAFO=0.0 RIJ=0.0 COSX=0.1
   Size of expansion space: 8
   Lowest Energy          :    -0.227071967936
   Maximum Energy change  :     0.008816425582 (vector 1)
   Maximum residual norm  :     0.000342834025

                       ****Iteration    2****
   Time for iteration     :  TOTAL=0.1 TRAFO=0.0 COSX=0.1
   Size of expansion space: 10
   Lowest Energy          :    -0.227101893591
   Maximum Energy change  :     0.003057839231 (vector 1)
   Maximum residual norm  :     0.000245829858

                       ****Iteration    3****
   Time for iteration     :  TOTAL=0.1 TRAFO=0.0 COSX=0.1
   Size of expansion space: 12
   Lowest Energy          :    -0.227102419837
   Maximum Energy change  :     0.001012911017 (vector 1)
   Maximum residual norm  :     0.000086008506

                       ****Iteration    4****
   Time for iteration     :  TOTAL=0.1 TRAFO=0.0 COSX=0.1
   Size of expansion space: 14
   Lowest Energy          :    -0.227102427639
   Maximum Energy change  :     0.000436191097 (vector 1)
   Maximum residual norm  :     0.000050340464

                       ****Iteration    5****
   Time for iteration     :  TOTAL=0.1 TRAFO=0.0 COSX=0.1
   Size of expansion space: 16
   Lowest Energy          :    -0.227102427729
   Maximum Energy change  :     0.000136779245 (vector 1)
   Maximum residual norm  :     0.000036137646

                       ****Iteration    6****
   Time for iteration     :  TOTAL=0.1 TRAFO=0.0 COSX=0.1
   Size of expansion space: 18
   Lowest Energy          :    -0.227102427730
   Maximum Energy change  :     0.000295586655 (vector 1)
   Maximum residual norm  :     0.000198438397

                       ****Iteration    7****
   Time for iteration     :  TOTAL=0.1 TRAFO=0.0 COSX=0.1
   Size of expansion space: 20
   Lowest Energy          :    -0.227102427730
   Maximum Energy change  :     0.001190111167 (vector 1)
   Maximum residual norm  :     0.000431698225
   Rebuilding the expansion space

                       ****Iteration    8****
   Time for iteration     :  TOTAL=0.2 TRAFO=0.0 COSX=0.1
   Size of expansion space: 4
   Lowest Energy          :    -0.227105817019
   Maximum Energy change  :     0.000501072492 (vector 1)
   Maximum residual norm  :     0.000163386585

                       ****Iteration    9****
   Time for iteration     :  TOTAL=0.1 TRAFO=0.0 COSX=0.1
   Size of expansion space: 6
   Lowest Energy          :    -0.227105817020
   Maximum Energy change  :     0.000195625166 (vector 1)
   Maximum residual norm  :     0.000048814002

                       ****Iteration   10****
   Time for iteration     :  TOTAL=0.1 TRAFO=0.0 COSX=0.1
   Size of expansion space: 7
   Lowest Energy          :    -0.227105817020
   Maximum Energy change  :     0.000070889089 (vector 1)
   Maximum residual norm  :     0.000016689758

                       ****Iteration   11****
   Time for iteration     :  TOTAL=0.1 TRAFO=0.0 COSX=0.1
   Size of expansion space: 8
   Lowest Energy          :    -0.227105817020
   Maximum Energy change  :     0.000032990619 (vector 1)
   Maximum residual norm  :     0.000015084558

                       ****Iteration   12****
   Time for iteration     :  TOTAL=0.1 TRAFO=0.0 COSX=0.1
   Size of expansion space: 9
   Lowest Energy          :    -0.227105817020
   Maximum Energy change  :     0.000065553950 (vector 1)
   Maximum residual norm  :     0.000073407575

                       ****Iteration   13****
   Time for iteration     :  TOTAL=0.1 TRAFO=0.0 COSX=0.1
   Size of expansion space: 10
   Lowest Energy          :    -0.227105817020
   Maximum Energy change  :     0.000072278878 (vector 1)
   Maximum residual norm  :     0.000038235421

                       ****Iteration   14****
   Time for iteration     :  TOTAL=0.1 TRAFO=0.0 COSX=0.1
   Size of expansion space: 11
   Lowest Energy          :    -0.227105817020
   Maximum Energy change  :     0.000018561151 (vector 1)
   Maximum residual norm  :     0.000023570413

                       ****Iteration   15****
   Time for iteration     :  TOTAL=0.1 TRAFO=0.0 COSX=0.1
   Size of expansion space: 12
[...]
      f+2     :     0.004228
      f-2     :     0.002950
      f+3     :    -0.004545
      f-3     :     0.000196
  2 C s       :    -0.031077  s :    -0.031077
      pz      :     0.009061  p :    -0.126648
      px      :    -0.012435
      py      :    -0.123275
      dz2     :    -0.023740  d :    -0.034492
      dxz     :     0.001807
      dyz     :     0.029298
      dx2y2   :    -0.018774
      dxy     :    -0.023083
      f0      :     0.001160  f :    -0.000228
      f+1     :    -0.000104
      f-1     :    -0.000919
      f+2     :     0.002275
      f-2     :     0.001514
      f+3     :    -0.003962
      f-3     :    -0.000193
  3 H s       :     0.027652  s :     0.027652
      pz      :    -0.009774  p :    -0.039823
      px      :    -0.000621
      py      :    -0.029428
      dz2     :    -0.000412  d :    -0.000540
      dxz     :     0.000112
      dyz     :    -0.000103
      dx2y2   :    -0.000021
      dxy     :    -0.000115
  4 H s       :     0.027699  s :     0.027699
      pz      :    -0.009775  p :    -0.039828
      px      :    -0.000626
      py      :    -0.029427
      dz2     :    -0.000412  d :    -0.000541
      dxz     :     0.000112
      dyz     :    -0.000103
      dx2y2   :    -0.000022
      dxy     :    -0.000115
  5 H s       :     0.015010  s :     0.015010
      pz      :    -0.012765  p :    -0.094409
      px      :    -0.001003
      py      :    -0.080641
      dz2     :    -0.000484  d :    -0.001962
      dxz     :    -0.000044
      dyz     :    -0.001125
      dx2y2   :     0.000041
      dxy     :    -0.000350
  6 H s       :     0.015024  s :     0.015024
      pz      :    -0.012776  p :    -0.094373
      px      :    -0.001003
      py      :    -0.080595
      dz2     :    -0.000485  d :    -0.001961
      dxz     :    -0.000043
      dyz     :    -0.001125
      dx2y2   :     0.000041
      dxy     :    -0.000349


                      *****************************
                      * MAYER POPULATION ANALYSIS *
                      *****************************

  NA   - Mulliken gross atomic population
  ZA   - Total nuclear charge
  QA   - Mulliken gross atomic charge
  VA   - Mayer's total valence
  BVA  - Mayer's bonded valence
  FA   - Mayer's free valence

  ATOM       NA         ZA         QA         VA         BVA        FA
  0 O      8.2201     8.0000    -0.2201     2.6381     1.9127     0.7254
  1 C      6.2845     6.0000    -0.2845     3.7492     3.9514    -0.2023
  2 C      5.9606     6.0000     0.0394     4.1950     3.9215     0.2735
  3 H      0.7536     1.0000     0.2464     0.9355     0.9177     0.0178
  4 H      0.7540     1.0000     0.2460     0.9362     0.9190     0.0173
  5 H      1.0139     1.0000    -0.0139     1.2953     1.3974    -0.1021
  6 H      1.0133     1.0000    -0.0133     1.2945     1.3973    -0.1028

  Mayer bond orders larger than 0.100000
B(  0-O ,  1-C ) :   1.0925 B(  0-O ,  2-C ) :   0.8370 B(  1-C ,  2-C ) :   0.8413 
B(  1-C ,  3-H ) :   0.9943 B(  1-C ,  4-H ) :   0.9948 B(  2-C ,  3-H ) :  -0.1087 
B(  2-C ,  4-H ) :  -0.1080 B(  2-C ,  5-H ) :   1.2300 B(  2-C ,  6-H ) :   1.2298 



-------
TIMINGS
-------

Total TD-DFT gradient time  ....        5.645 sec

Fock matrix formation       ....       1.216 sec  ( 21.5%)
  Coulomb formation         ....       0.944 sec  ( 77.6% of F)
  XC integration            ....       0.272 sec  ( 22.4% of F)
Z-vector equation           ....       1.769 sec  ( 31.3%)
Densities                   ....       0.000 sec  (  0.0%)
One electron gradient       ....       0.009 sec  (  0.2%)
RI-J Coulomb gradient       ....       0.094 sec  (  1.7%)
COSX gradient               ....       0.453 sec  (  8.0%)
XC gradient                 ....       1.892 sec  ( 33.5%)

Maximum memory used throughout the entire CIS-calculation: 35.8 MB
=> NOW LEAVING ORCA_CIS


-------------------------------------------------------------------------------
                          DFT DISPERSION CORRECTION                            
                                                                               
                              DFTD3 V3.1  Rev 1                                
                          USING Becke-Johnson damping                          
-------------------------------------------------------------------------------
The WB97M functional is recognized
Active option DFTDOPT                   ...         4   

molecular C6(AA) [au] = 350.903757 


            DFT-D V3
 parameters
 s6 scaling factor         :     1.0000 
 a1 scaling factor         :     0.5660 
 s8 scaling factor         :     0.3908 
 a2 scaling factor         :     3.1280 
 ad hoc parameters k1-k3   :    16.0000     1.3333    -4.0000 

 Edisp/kcal,au: -3.285267563374  -0.005235406554 
 E6   /kcal   :  -2.649715448 
 E8   /kcal   :  -0.635552115 
 % E8         :  19.345520661 

-------------------------   ----------------
Dispersion correction           -0.005235407
-------------------------   ----------------


-------------------------   --------------------
FINAL SINGLE POINT ENERGY      -153.629887513559
-------------------------   --------------------

[1740999227.349749] [ohm:3198501:0]        ib_iface.c:1059 UCX  ERROR ibv_create_cq(cqe=256) failed: Connection timed out
[1740999227.349732] [ohm:3198492:0]        ib_iface.c:1059 UCX  ERROR ibv_create_cq(cqe=256) failed: Connection timed out
[1740999227.349723] [ohm:3198494:0]        ib_iface.c:1059 UCX  ERROR ibv_create_cq(cqe=256) failed: Connection timed out
[1740999227.349845] [ohm:3198498:0]        ib_iface.c:1059 UCX  ERROR ibv_create_cq(cqe=256) failed: Connection timed out
[1740999227.349905] [ohm:3198496:0]        ib_iface.c:1059 UCX  ERROR ibv_create_cq(cqe=256) failed: Connection timed out
[1740999227.356942] [ohm:3198497:0]        ib_iface.c:1059 UCX  ERROR ibv_create_cq(cqe=256) failed: Connection timed out
[1740999227.356943] [ohm:3198491:0]        ib_iface.c:1059 UCX  ERROR ibv_create_cq(cqe=256) failed: Connection timed out
[1740999227.356946] [ohm:3198493:0]        ib_iface.c:1059 UCX  ERROR ibv_create_cq(cqe=256) failed: Connection timed out
[1740999227.357053] [ohm:3198495:0]        ib_iface.c:1059 UCX  ERROR ibv_create_cq(cqe=256) failed: Connection timed out
[1740999227.370217] [ohm:3198505:0]        ib_iface.c:1059 UCX  ERROR ibv_create_cq(cqe=256) failed: Connection timed out
[1740999227.370652] [ohm:3198520:0]        ib_iface.c:1059 UCX  ERROR ibv_create_cq(cqe=256) failed: Connection timed out
[1740999227.372806] [ohm:3198499:0]        ib_iface.c:1059 UCX  ERROR ibv_create_cq(cqe=256) failed: Connection timed out
[1740999227.372853] [ohm:3198503:0]        ib_iface.c:1059 UCX  ERROR ibv_create_cq(cqe=256) failed: Connection timed out
[1740999227.372853] [ohm:3198518:0]        ib_iface.c:1059 UCX  ERROR ibv_create_cq(cqe=256) failed: Connection timed out
[1740999227.373864] [ohm:3198515:0]        ib_iface.c:1059 UCX  ERROR ibv_create_cq(cqe=256) failed: Connection timed out
[1740999227.375176] [ohm:3198510:0]        ib_iface.c:1059 UCX  ERROR ibv_create_cq(cqe=256) failed: Connection timed out


           ************************************************************
           *        Program running with 16 parallel MPI-processes    *
           *              working on a common directory               *
           ************************************************************

------------------------------------------------------------------------------
                              ORCA PROPERTY CALCULATIONS
------------------------------------------------------------------------------

GBWName                                 ... orca.gbw
Number of atoms                         ...      7
Number of basis functions               ...    182
Max core memory                         ...   1024 MB

Electric properties:
Dipole moment                           ... YES
Quadrupole moment                       ...  NO
Static polarizability (Dipole/Dipole)   ...  NO
Static polarizability (Dipole/Quad.)    ...  NO
Static polarizability (Quad./Quad.)     ...  NO
Static polarizability (Velocity)        ...  NO

Atomic electric properties:
Dipole moment                           ...  NO
Quadrupole moment                       ...  NO
Static polarizability                   ...  NO

Choice of electric origin               ... Center of mass
Position of electric origin             ...     0.023410    -0.017114    -0.000080

General magnetic properties:
Magnetizability                         ...  NO

EPR properties:
g-Tensor (aka g-matrix)                 ...  NO
Zero-Field splitting spin-orbit         ...  NO
Zero-field splitting spin-spin          ...  NO
Hyperfine couplings                     ...  NO (   0 nuclei)
Quadrupole couplings                    ...  NO (   0 nuclei)
Contact density                         ...  NO (   0 nuclei)

NMR properties:
Chemical shifts                         ...  NO (   0 nuclei)
Spin-rotation constants                 ...  NO (   0 nuclei)
Spin-spin couplings                     ...  NO (   0 nuclei,    0 pairs)

Choice of magnetic origin               ... GIAO
Position of magnetic origin             ...     0.000000     0.000000     0.000000

Properties with geometric perturbations:
SCF Hessian                             ...  NO
IR spectrum                             ...  NO
VCD spectrum                            ...  NO
X-ray spectroscopy properties:
SCF XES/XAS/RIXS spectra                ...  NO


-------------
DIPOLE MOMENT
-------------

Method             : SCF
Type of density    : Electron Density
Multiplicity       :   3
Irrep              :   0
Energy             :  -153.6377958002390471 Eh
Relativity type    : 
Basis              : AO
                                X                 Y                 Z
Electronic contribution:      0.771737123       2.438617287      -0.000121606
Nuclear contribution   :     -0.071713605      -2.425967796       0.000290150
                        -----------------------------------------
Total Dipole Moment    :      0.700023518       0.012649491       0.000168544
                        -----------------------------------------
Magnitude (a.u.)       :      0.700137818
Magnitude (Debye)      :      1.779608904



--------------------
Rotational spectrum 
--------------------
 
Rotational constants in cm-1:             0.858405             0.728811             0.468110 
Rotational constants in MHz :         25734.337686         21849.198292         14033.593863 

Dipole components along the rotational axes: 
x,y,z [a.u.] :    -0.589555    -0.377648    -0.000142 
x,y,z [Debye]:    -1.498529    -0.959906    -0.000361 

 

-------------
DIPOLE MOMENT
-------------

Method             : TDA/CIS
Type of density    : Electron Density
Level              : Relaxed density
State              :   2
Multiplicity       :   3
Irrep              :   0
Energy             :     0.0000000000000000 Eh
Relativity type    : 
Basis              : AO
                                X                 Y                 Z
Electronic contribution:      0.516117649       1.721276151      -0.000199113
Nuclear contribution   :     -0.071713605      -2.425967796       0.000290150
                        -----------------------------------------
Total Dipole Moment    :      0.444404044      -0.704691645       0.000091037
                        -----------------------------------------
Magnitude (a.u.)       :      0.833117805
Magnitude (Debye)      :      2.117617171



--------------------
Rotational spectrum 
--------------------
 
Rotational constants in cm-1:             0.858405             0.728811             0.468110 
Rotational constants in MHz :         25734.337686         21849.198292         14033.593863 

Dipole components along the rotational axes: 
x,y,z [a.u.] :     0.020943    -0.832855    -0.000148 
x,y,z [Debye]:     0.053232    -2.116948    -0.000375 

 

Dipole moment calculation done in   0.0 sec 

Maximum memory used throughout the entire PROP-calculation: 7.6 MB
[1740999227.989072] [ohm:3198591:0]        ib_iface.c:1059 UCX  ERROR ibv_create_cq(cqe=256) failed: Connection timed out
[1740999227.991066] [ohm:3198587:0]        ib_iface.c:1059 UCX  ERROR ibv_create_cq(cqe=256) failed: Connection timed out
[1740999228.002314] [ohm:3198586:0]        ib_iface.c:1059 UCX  ERROR ibv_create_cq(cqe=256) failed: Connection timed out
[1740999228.002424] [ohm:3198590:0]        ib_iface.c:1059 UCX  ERROR ibv_create_cq(cqe=256) failed: Connection timed out
[1740999228.022474] [ohm:3198589:0]        ib_iface.c:1059 UCX  ERROR ibv_create_cq(cqe=256) failed: Connection timed out
[1740999228.022801] [ohm:3198592:0]        ib_iface.c:1059 UCX  ERROR ibv_create_cq(cqe=256) failed: Connection timed out
[1740999228.022857] [ohm:3198588:0]        ib_iface.c:1059 UCX  ERROR ibv_create_cq(cqe=256) failed: Connection timed out
[1740999228.032268] [ohm:3198596:0]        ib_iface.c:1059 UCX  ERROR ibv_create_cq(cqe=256) failed: Connection timed out
[1740999228.032485] [ohm:3198600:0]        ib_iface.c:1059 UCX  ERROR ibv_create_cq(cqe=256) failed: Connection timed out
[1740999228.033001] [ohm:3198594:0]        ib_iface.c:1059 UCX  ERROR ibv_create_cq(cqe=256) failed: Connection timed out
[1740999228.036822] [ohm:3198593:0]        ib_iface.c:1059 UCX  ERROR ibv_create_cq(cqe=256) failed: Connection timed out
[1740999228.037168] [ohm:3198609:0]        ib_iface.c:1059 UCX  ERROR ibv_create_cq(cqe=256) failed: Connection timed out
[1740999228.037296] [ohm:3198616:0]        ib_iface.c:1059 UCX  ERROR ibv_create_cq(cqe=256) failed: Connection timed out
[1740999228.041437] [ohm:3198605:0]        ib_iface.c:1059 UCX  ERROR ibv_create_cq(cqe=256) failed: Connection timed out
[1740999228.041666] [ohm:3198598:0]        ib_iface.c:1059 UCX  ERROR ibv_create_cq(cqe=256) failed: Connection timed out
[1740999228.051669] [ohm:3198613:0]        ib_iface.c:1059 UCX  ERROR ibv_create_cq(cqe=256) failed: Connection timed out

--------------------------------
SUGGESTED CITATIONS FOR THIS RUN
--------------------------------

Below you find a list of papers that are relevant to this ORCA run
We neither can nor want to force you to cite these papers, but we appreciate if you do
You receive ORCA, which is the product of decades of hard work by many enthusiastic individuals, for free
The only thing we kindly ask in return is that you cite our papers,
We deeply appreciate it, if you show your appreciation for ORCA by not just citing the generic ORCA reference.

Please note that relegating all ORCA citations to the supporting information does *not* help us.
SI sections are not indexed - citations you put there will not count into any citation statistics
But we need these citations in order to attract the funding resources that allow us to do what we are doing

Therefore, if you are a happy ORCA user, please consider citing a few of the papers listed below in the main body of your paper

In addition to the list printed below, the program has created the file orca.bibtex that contains the list in bibtex format
You can import this file easily into all common literature databanks and citation aid programs


List of essential papers. We consider these as the minimum necessary citations

  1. Neese,F.
     Software update: the ORCA program system, version 5.0
     WIRES Comput. Molec. Sci., 2022 12(1)e1606
     doi.org/10.1002/wcms.1606

List of papers to cite with high priority. The work reported in these papers was absolutely
necessary for this run to complete.
Our perspective: the developers of density functionals and basis sets usually get cited in chemistry papers
Good! But without the algorithms to do something with them, the functionals or basis sets would not do anything.
Hence, in our opinion, the algorithm design and method developments papers are equally worthy of getting cited

  1. Neese,F.; Olbrich,G.
     Efficient use of the resolution of the identity approximation in time-dependent density functional calculations with hybrid density functionals
     Chem. Phys. Lett., 2002 362 170-178
     doi.org/10.1016/s0009-2614(02)01053-9
  2. Neese,F.
     An improvement of the resolution of the identity approximation for the formation of the Coulomb matrix
     J. Comp. Chem., 2003 24(14)1740-1747
     doi.org/10.1002/jcc.10318
  3. Neese,F.; Wennmohs,F.; Hansen,A.; Becker,U.
     Efficient, approximate and parallel Hartree-Fock and hybrid DFT calculations. A 'chain-of-spheres' algorithm for the Hartree-Fock exchange
     Chem. Phys., 2009 356(1-3)98-109
     doi.org/10.1016/j.chemphys.2008.10.036
  4. Petrenko,T.; Kossmann,S.; Neese,F.
     Efficient time-dependent density functional theory approximations for hybrid density functionals: Analytical gradients and parallelization
     J. Chem. Phys., 2011 134 054116
     doi.org/10.1063/1.3533441
  5. Helmich-Paris,B.; de Souza,B.; Neese,F.; Izsák,R.
     An improved chain of spheres for exchange algorithm
     J. Chem. Phys., 2021 155 104109
     doi.org/doi: 10.1063/5.0058766.
  6. Neese,F.
     The SHARK Integral Generation and Digestion System
     J. Comp. Chem., 2022  1-16
     doi.org/10.1002/jcc.26942
  7. Lehtola,S.; Steigemann,C.; Oliveira,M.; Marques,M.
     Recent developments in Libxc - A comprehensive library of functionals for density functional theory
     Software X, 2018 7 
     doi.org/10.1016/j.softx.2017.11.002
  8. Grimme,S.; Antony,J.; Ehrlich,S.; Krieg,H.
     A consistent and accurate ab initio parametrization of density functional dispersion correction (DFT-D) for the 94 elements H-Pu
     J. Chem. Phys., 2010 132 154104-XXXX
     doi.org/10.1063/1.3382344
  9. Grimme,S.; Ehrlich,S.; Goerigk,L.
     Effect of the damping function in dispersion corrected density functional theory
     J. Comput. Chem., 2011 32(7)1456-1465
     doi.org/10.1002/jcc.21759

List of suggested additional citations. These are papers that are important in the 'surrounding' of 
of this run, or papers that preceded the highly important papers. If you like your results we are grateful for a citation.

  1. Izsak,R.; Neese,F.
     An overlap fitted chain of spheres exchange method
     J. Chem. Phys., 2011 135 144105
     doi.org/10.1063/1.3646921
  2. Izsak,R.; Hansen,A.; Neese,F.
     The resolution of identity and chain of spheres approximations for the LPNO-CCSD singles Fock term
     Molec. Phys., 2012 110 2413-2417
     doi.org/10.1080/00268976.2012.687466
  3. Neese,F.
     The ORCA program system
     WIRES Comput. Molec. Sci., 2012 2(1)73-78
     doi.org/10.1002/wcms.81
  4. Izsak,R.; Neese,F.; Klopper,W.
     Robust fitting techniques in the chain of spheres approximation to the Fock exchange: The role of the complementary space
     J. Chem. Phys., 2013 139 
     doi.org/10.1063/1.4819264
  5. Neese,F.
     Software update: the ORCA program system, version 4.0
     WIRES Comput. Molec. Sci., 2018 8(1)1-6
     doi.org/10.1002/wcms.1327
  6. Neese,F.; Wennmohs,F.; Becker,U.; Riplinger,C.
     The ORCA quantum chemistry program package
     J. Chem. Phys., 2020 152 Art. No. L224108
     doi.org/10.1063/5.0004608

List of optional additional citations

  1. Neese,F.
     Approximate second-order SCF convergence for spin unrestricted wavefunctions
     Chem. Phys. Lett., 2000 325(1-3)93-98
     doi.org/10.1016/s0009-2614(00)00662-x

Timings for individual modules:

Sum of individual times          ...       19.569 sec (=   0.326 min)
Startup calculation              ...        1.006 sec (=   0.017 min)   5.1 %
SCF iterations                   ...        8.305 sec (=   0.138 min)  42.4 %
Property integrals               ...        0.730 sec (=   0.012 min)   3.7 %
Property calculations            ...        0.669 sec (=   0.011 min)   3.4 %
CIS module                       ...        8.860 sec (=   0.148 min)  45.3 %
                             ****ORCA TERMINATED NORMALLY****
TOTAL RUN TIME: 0 days 0 hours 0 minutes 20 seconds 296 msec
