
                                 *****************
                                 * O   R   C   A *
                                 *****************

                                            #,                                       
                                            ###                                      
                                            ####                                     
                                            #####                                    
                                            ######                                   
                                           ########,                                 
                                     ,,################,,,,,                         
                               ,,#################################,,                 
                          ,,##########################################,,             
                       ,#########################################, ''#####,          
                    ,#############################################,,   '####,        
                  ,##################################################,,,,####,       
                ,###########''''           ''''###############################       
              ,#####''   ,,,,##########,,,,          '''####'''          '####       
            ,##' ,,,,###########################,,,                        '##       
           ' ,,###''''                  '''############,,,                           
         ,,##''                                '''############,,,,        ,,,,,,###''
      ,#''                                            '''#######################'''  
     '                                                          ''''####''''         
             ,#######,   #######,   ,#######,      ##                                
            ,#'     '#,  ##    ##  ,#'     '#,    #''#        ,####,   ,####,        
            ##       ##  ##   ,#'  ##            #'  '#       #'       #'  '#        
            ##       ##  #######   ##           ,######,      #####,   #    #        
            '#,     ,#'  ##    ##  '#,     ,#' ,#      #,     #,   #   #,  ,#        
             '#######'   ##     ##  '#######'  #'      '#     '####' # '####'        



                #########################################################
                #                        -***-                          #
                #          Department of theory and spectroscopy        #
                #                                                       #
                #                      Frank Neese                      #
                #                                                       #
                #     Directorship, Architecture, Infrastructure        #
                #                    SHARK, DRIVERS                     #
                #        Core code/Algorithms in most modules           #
                #                                                       #
                #        Max Planck Institute fuer Kohlenforschung      #
                #                Kaiser Wilhelm Platz 1                 #
                #                 D-45470 Muelheim/Ruhr                 #
                #                      Germany                          #
                #                                                       #
                #                  All rights reserved                  #
                #                        -***-                          #
                #########################################################


                         Program Version 6.0.0  -   RELEASE  -


 With contributions from (in alphabetic order):
   Daniel Aravena         : Magnetic Suceptibility
   Michael Atanasov       : Ab Initio Ligand Field Theory (pilot matlab implementation)
   Alexander A. Auer      : GIAO ZORA, VPT2 properties, NMR spectrum
   Ute Becker             : All parallelization in ORCA, NUMFREQ, NUMCALC
   Giovanni Bistoni       : ED, misc. LED, open-shell LED, HFLD
   Martin Brehm           : Molecular dynamics
   Dmytro Bykov           : pre 5.0 version of the SCF Hessian
   Marcos Casanova-Páez   : Triplet and SCS-CIS(D). UHF-(DLPNO)-IP/EA/STEOM-CCSD. UHF-CVS-IP/STEOM-CCSD
   Vijay G. Chilkuri      : MRCI spin determinant printing, contributions to CSF-ICE
   Pauline Colinet        : FMM embedding
   Dipayan Datta          : RHF DLPNO-CCSD density
   Achintya Kumar Dutta   : EOM-CC, STEOM-CC
   Nicolas Foglia         : Exact transition moments, OPA infrastructure, MCD improvements
   Dmitry Ganyushin       : Spin-Orbit,Spin-Spin,Magnetic field MRCI
   Miquel Garcia          : C-PCM and meta-GGA Hessian, CCSD/C-PCM, Gaussian charge scheme
   Tiago L. C. Gouveia    : GS-ROHF, GS-ROCIS
   Yang Guo               : DLPNO-NEVPT2, F12-NEVPT2, CIM, IAO-localization
   Andreas Hansen         : Spin unrestricted coupled pair/coupled cluster methods
   Ingolf Harden          : AUTO-CI MPn and infrastructure 
   Benjamin Helmich-Paris : MC-RPA, TRAH-(SCF,CASSCF), AVAS, COSX integrals, SCF dyn. polar.
   Lee Huntington         : MR-EOM, pCC
   Robert Izsak           : Overlap fitted RIJCOSX, COSX-SCS-MP3, EOM
   Riya Kayal             : Wick's Theorem for AUTO-CI, AUTO-CI UHF-CCSDT
   Emily Kempfer          : AUTO-CI, RHF CISDT and CCSDT
   Christian Kollmar      : KDIIS, OOCD, Brueckner-CCSD(T), CCSD density, CASPT2, CASPT2-K, improved NEVPT2
   Axel Koslowski         : Symmetry handling
   Simone Kossmann        : Meta GGA functionals, TD-DFT gradient, OOMP2, (MP2 Hessian; deprecated post 5.0)
   Lucas Lang             : DCDCAS
   Marvin Lechner         : AUTO-CI (C++ implementation), FIC-MRCC
   Spencer Leger          : CASSCF response
   Dagmar Lenk            : GEPOL surface, SMD, ORCA-2-JSON
   Dimitrios Liakos       : Extrapolation schemes; Compound Job, initial MDCI parallelization
   Dimitrios Manganas     : Further ROCIS development; embedding schemes. LFT, Crystal Embedding
   Dimitrios Pantazis     : SARC Basis sets
   Anastasios Papadopoulos: AUTO-CI, single reference methods and gradients
   Taras Petrenko         : pre 6.0 DFT Hessian and TD-DFT gradient, (ASA, deprecated), ECA, 1-Electron XAS/XES, NRVS
   Peter Pinski           : DLPNO-MP2, DLPNO-MP2 Gradient
   Christoph Reimann      : Effective Core Potentials
   Marius Retegan         : Local ZFS, SOC
   Christoph Riplinger    : Optimizer, TS searches, QM/MM, DLPNO-CCSD(T), (RO)-DLPNO pert. Triples
   Michael Roemelt        : Original ROCIS implementation
   Masaaki Saitow         : Open-shell DLPNO-CCSD energy and density
   Barbara Sandhoefer     : DKH picture change effects
   Kantharuban Sivalingam : CASSCF convergence/infrastructure, NEVPT2 and variants, FIC-MRCI
   Bernardo de Souza      : ESD, SOC TD-DFT
   Georgi Stoychev        : AutoAux, RI-MP2 NMR, DLPNO-MP2 response, X2C
   Van Anh Tran           : RI-MP2 g-tensors
   Willem Van den Heuvel  : Paramagnetic NMR
   Zikuan Wang            : NOTCH, Electric field optimization 
   Frank Wennmohs         : Technical directorship and infrastructure
   Hang Xu                : AUTO-CI-Response properties 


 We gratefully acknowledge several colleagues who have allowed us to
 interface, adapt or use parts of their codes:
   Stefan Grimme, W. Hujo, H. Kruse, P. Pracht,  : VdW corrections, initial TS optimization,
                  C. Bannwarth, S. Ehlert,         DFT functionals, gCP, sTDA/sTD-DF
                  L. Wittmann, M. Mueller
   Ed Valeev, F. Pavosevic, A. Kumar             : LibInt (2-el integral package), F12 methods
   Garnet Chan, S. Sharma, J. Yang, R. Olivares  : DMRG
   Ulf Ekstrom                                   : XCFun DFT Library
   Mihaly Kallay                                 : mrcc  (arbitrary order and MRCC methods)
   Frank Weinhold                                : gennbo (NPA and NBO analysis)
   Simon Mueller                                 : openCOSMO-RS
   Christopher J. Cramer and Donald G. Truhlar   : smd solvation model
   Lars Goerigk                                  : TD-DFT with DH, B97 family of functionals
   V. Asgeirsson, H. Jonsson                     : NEB implementation
   FAccTs GmbH                                   : IRC, NEB, NEB-TS, DLPNO-Multilevel, CI-OPT
                                                   MM, QMMM, 2- and 3-layer-ONIOM, Crystal-QMMM,
                                                   LR-CPCM, SF, NACMEs, symmetry and pop. for TD-DFT,
                                                   nearIR, NL-DFT gradient (VV10), updates on ESD,
                                                   ML-optimized integration grids, MBIS, APM,
                                                   GOAT, DOCKER, SOLVATOR, interface openCOSMO-RS
   S Lehtola, MJT Oliveira, MAL Marques          : LibXC Library
   Liviu Ungur et al                             : ANISO software


 Your calculation uses the libint2 library for the computation of 2-el integrals
 For citations please refer to: http://libint.valeyev.net

 Your ORCA version has been built with support for libXC version: 6.2.2
 For citations please refer to: https://libxc.gitlab.io

 This ORCA versions uses:
   CBLAS   interface :  Fast vector & matrix operations
   LAPACKE interface :  Fast linear algebra routines
   SCALAPACK package :  Parallel linear algebra routines
   Shared memory     :  Shared parallel matrices
   BLAS/LAPACK       :  OpenBLAS 0.3.27  USE64BITINT DYNAMIC_ARCH NO_AFFINITY Zen SINGLE_THREADED
        Core in use  :  Zen
   Copyright (c) 2011-2014, The OpenBLAS Project


Your calculation utilizes the atom-pairwise dispersion correction
with the Becke-Johnson damping scheme (D3BJ)


Warning: RI is on but no J-basis has been assigned. Assigning Def2/J (nothing to worry about!)
================================================================================

----- Orbital basis set information -----
Your calculation utilizes the basis: def2-TZVPPD
   F. Weigend and R. Ahlrichs, Phys. Chem. Chem. Phys. 7, 3297 (2005).
   D. Rappoport and F. Furche, J. Chem. Phys. 133, 134105 (2010)
   D. Rappoport, J. Chem. Phys. 155, 124102 (2021).

----- AuxJ basis set information -----
Your calculation utilizes the auxiliary basis: def2/J
   F. Weigend, Phys. Chem. Chem. Phys. 8, 1057 (2006).

================================================================================
                                        WARNINGS
                       Please study these warnings very carefully!
================================================================================

Using LibXC functional ID 531 : wB97M-V exchange-correlation functional
[ 1]  N. Mardirossian and M. Head-Gordon.,  J. Chem. Phys. 144, 214110 (2016)
Using LibXC functional ID 531 : wB97M-V exchange-correlation functional
[ 1]  N. Mardirossian and M. Head-Gordon.,  J. Chem. Phys. 144, 214110 (2016)

WARNING: B97M-V or wB97M-V functional requested.
  ===> : libXC variant has now been activated.
         Any manually given DFX/HFX/RangeSep scaling parameters are IGNORED!

Your calculation utilizes LibXC
 by S Lehtola, C Steigemann, MJT Oliveira & MAL Marques
Please cite in your paper:
 S Lehtola, C Steigemann, MJT Oliveira & MAL Marques, SoftwareX, 7, (2018), 1.
   


WARNING: your system is open-shell and RHF/RKS was chosen
  ===> : WILL SWITCH to UHF/UKS

INFO   : Checking CIS options ...

WARNING: CIS/ROCIS methods need fully converged wavefunctions
  ===> : Setting SCFConvForced true
         You can overwrite this default with %scf ConvForced false 


================================================================================
                                       INPUT FILE
================================================================================
NAME = orca.inp
|  1> ! Engrad def2-TZVPPD wB97M-D3BJ 
|  2> %pal nprocs 8 end%pal nprocs 64 end 
|  3> %tddft 
|  4>  Iroot 1 Nroots 3 
|  5> sf true 
|  6> end 
|  7> *xyz 0 3 
|  8> O   0.39285631 1.06583267 0.60540801
|  9> C   0.41327946 -0.28907572 0.5164617
| 10> C   0.41655589 -0.63470852 -1.00200959
| 11> H   -0.47255534 -0.703201 1.06945826
| 12> H   1.21825002 -0.82756804 1.22492378
| 13> H   -0.14702376 -1.47937663 -1.32408124
| 14> H   1.02767343 -0.03959976 -1.63270019
| 15> *
| 16> 
| 17>                          ****END OF INPUT****
================================================================================

                     *******************************
                     * Energy+Gradient Calculation *
                     *******************************

---------------------------------
CARTESIAN COORDINATES (ANGSTROEM)
---------------------------------
  O      0.392856    1.065833    0.605408
  C      0.413279   -0.289076    0.516462
  C      0.416556   -0.634709   -1.002010
  H     -0.472555   -0.703201    1.069458
  H      1.218250   -0.827568    1.224924
  H     -0.147024   -1.479377   -1.324081
  H      1.027673   -0.039600   -1.632700

----------------------------
CARTESIAN COORDINATES (A.U.)
----------------------------
  NO LB      ZA    FRAG     MASS         X           Y           Z
   0 O     8.0000    0    15.999    0.742391    2.014132    1.144055
   1 C     6.0000    0    12.011    0.780985   -0.546274    0.975971
   2 C     6.0000    0    12.011    0.787177   -1.199425   -1.893524
   3 H     1.0000    0     1.008   -0.893000   -1.328857    2.020983
   4 H     1.0000    0     1.008    2.302159   -1.563877    2.314770
   5 H     1.0000    0     1.008   -0.277835   -2.795617   -2.502151
   6 H     1.0000    0     1.008    1.942021   -0.074833   -3.085356

--------------------------------
INTERNAL COORDINATES (ANGSTROEM)
--------------------------------
 O      0   0   0     0.000000000000     0.00000000     0.00000000
 C      1   0   0     1.357978385841     0.00000000     0.00000000
 C      2   1   0     1.557314299037   106.57898431     0.00000000
 H      2   1   3     1.123391399201   108.88705485   237.12843954
 H      2   1   3     1.199945873764   114.78200198   133.07453920
 H      3   2   1     1.065277609677   118.01231526   217.75957800
 H      3   2   1     1.060843870158   117.15486251    41.13031977

---------------------------
INTERNAL COORDINATES (A.U.)
---------------------------
 O      0   0   0     0.000000000000     0.00000000     0.00000000
 C      1   0   0     2.566207245024     0.00000000     0.00000000
 C      2   1   0     2.942897529619   106.57898431     0.00000000
 H      2   1   3     2.122902085692   108.88705485   237.12843954
 H      2   1   3     2.267569076943   114.78200198   133.07453920
 H      3   2   1     2.013082938888   118.01231526   217.75957800
 H      3   2   1     2.004704385449   117.15486251    41.13031977

---------------------
BASIS SET INFORMATION
---------------------
There are 3 groups of distinct atoms

 Group   1 Type O   : 12s7p3d1f contracted to 6s4p3d1f pattern {621111/4111/111/1}
 Group   2 Type C   : 12s6p3d1f contracted to 6s3p3d1f pattern {621111/411/111/1}
 Group   3 Type H   : 5s3p1d contracted to 3s3p1d pattern {311/111/1}

Atom   0O    basis set group =>   1
Atom   1C    basis set group =>   2
Atom   2C    basis set group =>   2
Atom   3H    basis set group =>   3
Atom   4H    basis set group =>   3
Atom   5H    basis set group =>   3
Atom   6H    basis set group =>   3
---------------------------------
AUXILIARY/J BASIS SET INFORMATION
---------------------------------
There are 3 groups of distinct atoms

 Group   1 Type O   : 12s5p4d2f1g contracted to 6s4p3d1f1g pattern {711111/2111/211/2/1}
 Group   2 Type C   : 12s5p4d2f1g contracted to 6s4p3d1f1g pattern {711111/2111/211/2/1}
 Group   3 Type H   : 5s2p1d contracted to 3s1p1d pattern {311/2/1}

Atom   0O    basis set group =>   1
Atom   1C    basis set group =>   2
Atom   2C    basis set group =>   2
Atom   3H    basis set group =>   3
Atom   4H    basis set group =>   3
Atom   5H    basis set group =>   3
Atom   6H    basis set group =>   3
[1741606099.981887] [ohm:3013992:0]        ib_iface.c:1059 UCX  ERROR ibv_create_cq(cqe=256) failed: Connection timed out
[1741606099.985912] [ohm:3013990:0]        ib_iface.c:1059 UCX  ERROR ibv_create_cq(cqe=256) failed: Connection timed out
[1741606099.995452] [ohm:3013993:0]        ib_iface.c:1059 UCX  ERROR ibv_create_cq(cqe=256) failed: Connection timed out
[1741606100.030343] [ohm:3013991:0]        ib_iface.c:1059 UCX  ERROR ibv_create_cq(cqe=256) failed: Connection timed out
[1741606100.044865] [ohm:3014002:0]        ib_iface.c:1059 UCX  ERROR ibv_create_cq(cqe=256) failed: Connection timed out
[1741606100.047422] [ohm:3014019:0]        ib_iface.c:1059 UCX  ERROR ibv_create_cq(cqe=256) failed: Connection timed out
[1741606100.050211] [ohm:3013995:0]        ib_iface.c:1059 UCX  ERROR ibv_create_cq(cqe=256) failed: Connection timed out
[1741606100.050326] [ohm:3014021:0]        ib_iface.c:1059 UCX  ERROR ibv_create_cq(cqe=256) failed: Connection timed out
[1741606100.060398] [ohm:3014001:0]        ib_iface.c:1059 UCX  ERROR ibv_create_cq(cqe=256) failed: Connection timed out
[1741606100.064123] [ohm:3013997:0]        ib_iface.c:1059 UCX  ERROR ibv_create_cq(cqe=256) failed: Connection timed out
[1741606100.066776] [ohm:3013996:0]        ib_iface.c:1059 UCX  ERROR ibv_create_cq(cqe=256) failed: Connection timed out
[1741606100.073755] [ohm:3013999:0]        ib_iface.c:1059 UCX  ERROR ibv_create_cq(cqe=256) failed: Connection timed out
[1741606100.084981] [ohm:3014055:0]        ib_iface.c:1059 UCX  ERROR ibv_create_cq(cqe=256) failed: Connection timed out
[1741606100.085399] [ohm:3013994:0]        ib_iface.c:1059 UCX  ERROR ibv_create_cq(cqe=256) failed: Connection timed out
[1741606100.087164] [ohm:3014051:0]        ib_iface.c:1059 UCX  ERROR ibv_create_cq(cqe=256) failed: Connection timed out
[1741606100.087387] [ohm:3014101:0]        ib_iface.c:1059 UCX  ERROR ibv_create_cq(cqe=256) failed: Connection timed out
[1741606100.090334] [ohm:3014092:0]        ib_iface.c:1059 UCX  ERROR ibv_create_cq(cqe=256) failed: Connection timed out
[1741606100.095030] [ohm:3014052:0]        ib_iface.c:1059 UCX  ERROR ibv_create_cq(cqe=256) failed: Connection timed out
[1741606100.100747] [ohm:3014058:0]        ib_iface.c:1059 UCX  ERROR ibv_create_cq(cqe=256) failed: Connection timed out
[1741606100.119973] [ohm:3014024:0]        ib_iface.c:1059 UCX  ERROR ibv_create_cq(cqe=256) failed: Connection timed out
[1741606100.121269] [ohm:3014022:0]        ib_iface.c:1059 UCX  ERROR ibv_create_cq(cqe=256) failed: Connection timed out
[1741606100.122796] [ohm:3014025:0]        ib_iface.c:1059 UCX  ERROR ibv_create_cq(cqe=256) failed: Connection timed out
[1741606100.125755] [ohm:3014000:0]        ib_iface.c:1059 UCX  ERROR ibv_create_cq(cqe=256) failed: Connection timed out
[1741606100.144753] [ohm:3014003:0]        ib_iface.c:1059 UCX  ERROR ibv_create_cq(cqe=256) failed: Connection timed out
[1741606100.156788] [ohm:3014060:0]        ib_iface.c:1059 UCX  ERROR ibv_create_cq(cqe=256) failed: Connection timed out
[1741606100.158323] [ohm:3014046:0]        ib_iface.c:1059 UCX  ERROR ibv_create_cq(cqe=256) failed: Connection timed out
[1741606100.163983] [ohm:3014050:0]        ib_iface.c:1059 UCX  ERROR ibv_create_cq(cqe=256) failed: Connection timed out
[1741606100.176061] [ohm:3014004:0]        ib_iface.c:1059 UCX  ERROR ibv_create_cq(cqe=256) failed: Connection timed out
[1741606100.178398] [ohm:3014048:0]        ib_iface.c:1059 UCX  ERROR ibv_create_cq(cqe=256) failed: Connection timed out
[1741606100.204012] [ohm:3014038:0]        ib_iface.c:1059 UCX  ERROR ibv_create_cq(cqe=256) failed: Connection timed out
[1741606100.226298] [ohm:3014032:0]        ib_iface.c:1059 UCX  ERROR ibv_create_cq(cqe=256) failed: Connection timed out
[1741606100.237409] [ohm:3014042:0]        ib_iface.c:1059 UCX  ERROR ibv_create_cq(cqe=256) failed: Connection timed out
[1741606100.238628] [ohm:3014134:0]        ib_iface.c:1059 UCX  ERROR ibv_create_cq(cqe=256) failed: Connection timed out
[1741606100.240653] [ohm:3014122:0]        ib_iface.c:1059 UCX  ERROR ibv_create_cq(cqe=256) failed: Connection timed out
[1741606100.246913] [ohm:3014077:0]        ib_iface.c:1059 UCX  ERROR ibv_create_cq(cqe=256) failed: Connection timed out
[1741606100.248155] [ohm:3014128:0]        ib_iface.c:1059 UCX  ERROR ibv_create_cq(cqe=256) failed: Connection timed out
[1741606100.258879] [ohm:3014115:0]        ib_iface.c:1059 UCX  ERROR ibv_create_cq(cqe=256) failed: Connection timed out
[1741606100.265471] [ohm:3014085:0]        ib_iface.c:1059 UCX  ERROR ibv_create_cq(cqe=256) failed: Connection timed out
[1741606100.266780] [ohm:3014059:0]        ib_iface.c:1059 UCX  ERROR ibv_create_cq(cqe=256) failed: Connection timed out
[1741606100.270519] [ohm:3014079:0]        ib_iface.c:1059 UCX  ERROR ibv_create_cq(cqe=256) failed: Connection timed out
[1741606100.282596] [ohm:3014106:0]        ib_iface.c:1059 UCX  ERROR ibv_create_cq(cqe=256) failed: Connection timed out
[1741606100.286002] [ohm:3014020:0]        ib_iface.c:1059 UCX  ERROR ibv_create_cq(cqe=256) failed: Connection timed out
[1741606100.288770] [ohm:3013998:0]        ib_iface.c:1059 UCX  ERROR ibv_create_cq(cqe=256) failed: Connection timed out
[1741606100.292554] [ohm:3014098:0]        ib_iface.c:1059 UCX  ERROR ibv_create_cq(cqe=256) failed: Connection timed out
[1741606100.292673] [ohm:3014064:0]        ib_iface.c:1059 UCX  ERROR ibv_create_cq(cqe=256) failed: Connection timed out
[1741606100.298269] [ohm:3014056:0]        ib_iface.c:1059 UCX  ERROR ibv_create_cq(cqe=256) failed: Connection timed out
[1741606100.308931] [ohm:3014083:0]        ib_iface.c:1059 UCX  ERROR ibv_create_cq(cqe=256) failed: Connection timed out
[1741606100.309095] [ohm:3014071:0]        ib_iface.c:1059 UCX  ERROR ibv_create_cq(cqe=256) failed: Connection timed out
[1741606100.312815] [ohm:3014063:0]        ib_iface.c:1059 UCX  ERROR ibv_create_cq(cqe=256) failed: Connection timed out
[1741606100.313685] [ohm:3014029:0]        ib_iface.c:1059 UCX  ERROR ibv_create_cq(cqe=256) failed: Connection timed out
[1741606100.316501] [ohm:3014109:0]        ib_iface.c:1059 UCX  ERROR ibv_create_cq(cqe=256) failed: Connection timed out
[1741606100.317239] [ohm:3014136:0]        ib_iface.c:1059 UCX  ERROR ibv_create_cq(cqe=256) failed: Connection timed out
[1741606100.317587] [ohm:3014120:0]        ib_iface.c:1059 UCX  ERROR ibv_create_cq(cqe=256) failed: Connection timed out
[1741606100.325508] [ohm:3014057:0]        ib_iface.c:1059 UCX  ERROR ibv_create_cq(cqe=256) failed: Connection timed out
[1741606100.325503] [ohm:3014062:0]        ib_iface.c:1059 UCX  ERROR ibv_create_cq(cqe=256) failed: Connection timed out
[1741606100.325848] [ohm:3014054:0]        ib_iface.c:1059 UCX  ERROR ibv_create_cq(cqe=256) failed: Connection timed out
[1741606100.325893] [ohm:3014141:0]        ib_iface.c:1059 UCX  ERROR ibv_create_cq(cqe=256) failed: Connection timed out
[1741606100.327337] [ohm:3014090:0]        ib_iface.c:1059 UCX  ERROR ibv_create_cq(cqe=256) failed: Connection timed out
[1741606100.330271] [ohm:3014112:0]        ib_iface.c:1059 UCX  ERROR ibv_create_cq(cqe=256) failed: Connection timed out
[1741606100.330743] [ohm:3014053:0]        ib_iface.c:1059 UCX  ERROR ibv_create_cq(cqe=256) failed: Connection timed out
[1741606100.334027] [ohm:3014142:0]        ib_iface.c:1059 UCX  ERROR ibv_create_cq(cqe=256) failed: Connection timed out
[1741606100.334930] [ohm:3014068:0]        ib_iface.c:1059 UCX  ERROR ibv_create_cq(cqe=256) failed: Connection timed out
[1741606100.335706] [ohm:3014131:0]        ib_iface.c:1059 UCX  ERROR ibv_create_cq(cqe=256) failed: Connection timed out
[1741606100.335958] [ohm:3014061:0]        ib_iface.c:1059 UCX  ERROR ibv_create_cq(cqe=256) failed: Connection timed out


           ************************************************************
           *        Program running with 64 parallel MPI-processes    *
           *              working on a common directory               *
           ************************************************************
------------------------------------------------------------------------------
                             ORCA STARTUP CALCULATIONS
                           -- RI-GTO INTEGRALS CHOSEN --
------------------------------------------------------------------------------
------------------------------------------------------------------------------
                   ___                                                        
                  /   \      - P O W E R E D   B Y -                         
                 /     \                                                     
                 |  |  |   _    _      __       _____    __    __             
                 |  |  |  | |  | |    /  \     |  _  \  |  |  /  |          
                  \  \/   | |  | |   /    \    | | | |  |  | /  /          
                 / \  \   | |__| |  /  /\  \   | |_| |  |  |/  /          
                |  |  |   |  __  | /  /__\  \  |    /   |      \           
                |  |  |   | |  | | |   __   |  |    \   |  |\   \          
                \     /   | |  | | |  |  |  |  | |\  \  |  | \   \       
                 \___/    |_|  |_| |__|  |__|  |_| \__\ |__|  \__/        
                                                                              
                      - O R C A' S   B I G   F R I E N D -                    
                                      &                                       
                       - I N T E G R A L  F E E D E R -                       
                                                                              
 v1 FN, 2020, v2 2021, v3 2022-2024                                           
------------------------------------------------------------------------------


----------------------
SHARK INTEGRAL PACKAGE
----------------------

Number of atoms                             ...      7
Number of basis functions                   ...    182
Number of shells                            ...     68
Maximum angular momentum                    ...      3
Integral batch strategy                     ... SHARK/LIBINT Hybrid
RI-J (if used) integral strategy            ... SPLIT-RIJ (Revised 2003 algorithm where possible)
Printlevel                                  ...      1
Contraction scheme used                     ... SEGMENTED contraction
Prescreening option                         ... SCHWARTZ
   Thresh                                   ... 2.500e-11
   Tcut                                     ... 2.500e-12
   Tpresel                                  ... 2.500e-12 
Coulomb Range Separation                    ... NOT USED
Exchange Range Separation                   ... Long Range
   Mu parameter                             ... 3.000e-01
   Scaling (regular/separated)              ... 1.500e-01 8.500e-01
Multipole approximations                    ... NOT USED
Finite Nucleus Model                        ... NOT USED
CABS basis                                  ... NOT available
Auxiliary Coulomb fitting basis             ... AVAILABLE
   # of basis functions in Aux-J            ...    191
   # of shells in Aux-J                     ...     65
   Maximum angular momentum in Aux-J        ...      4
Auxiliary J/K fitting basis                 ... NOT available
Auxiliary Correlation fitting basis         ... NOT available
Auxiliary 'external' fitting basis          ... NOT available

Checking pre-screening integrals            ... done (  0.0 sec) Dimension = 68
Check shell pair data                       ... done (  0.0 sec)
Shell pair information
Shell pair cut-off parameter TPreSel        ...   2.5e-12
Total number of shell pairs                 ...      2346
Shell pairs after pre-screening             ...      2330
Total number of primitive shell pairs       ...      5434
Primitive shell pairs kept                  ...      4816
          la=0 lb=0:    456 shell pairs
          la=1 lb=0:    657 shell pairs
          la=1 lb=1:    253 shell pairs
          la=2 lb=0:    387 shell pairs
          la=2 lb=1:    285 shell pairs
          la=2 lb=2:     91 shell pairs
          la=3 lb=0:     90 shell pairs
          la=3 lb=1:     66 shell pairs
          la=3 lb=2:     39 shell pairs
          la=3 lb=3:      6 shell pairs

Calculating one electron integrals          ... done (  0.0 sec)
Calculating RI/J V-Matrix + Cholesky decomp.... done (  0.0 sec)
Calculating Nuclear repulsion               ... done (  0.0 sec) ENN=     67.128065458207 Eh

Diagonalization of the overlap matrix:
Smallest eigenvalue                        ... 3.055e-05
Time for diagonalization                   ...    0.003 sec
Threshold for overlap eigenvalues          ... 1.000e-07
Number of eigenvalues below threshold      ... 0
Time for construction of square roots      ...    0.003 sec
Total time needed                          ...    0.009 sec

-------------------
DFT GRID GENERATION
-------------------

General Integration Accuracy     IntAcc      ... 4.388
Radial Grid Type                 RadialGrid  ... OptM3 with GC (2021)
Angular Grid (max. ang.)         AngularGrid ... 4 (Lebedev-302)
Angular grid pruning method      GridPruning ... 4 (adaptive)
Weight generation scheme         WeightScheme... mBecke (2022)
Basis function cutoff            BFCut       ... 1.0000e-11
Integration weight cutoff        WCut        ... 1.0000e-14
Partially contracted basis set               ... off
Rotationally invariant grid construction     ... off
Angular grids for H and He will be reduced by one unit
Diffuse basis detected: some atoms will have their outermost
                        angular grid increased by 1.

Total number of grid points                  ...    33145
Total number of batches                      ...      520
Average number of points per batch           ...       63
Average number of grid points per atom       ...     4735

--------------------
COSX GRID GENERATION
--------------------

GRIDX 1
-------
General Integration Accuracy     IntAcc      ... 3.816
Radial Grid Type                 RadialGrid  ... OptM3 with GC (2021)
Angular Grid (max. ang.)         AngularGrid ... 1 (Lebedev-50)
Angular grid pruning method      GridPruning ... 4 (adaptive)
Weight generation scheme         WeightScheme... mBecke (2022)
Basis function cutoff            BFCut       ... 1.0000e-11
Integration weight cutoff        WCut        ... 1.0000e-14
Partially contracted basis set               ... on
Rotationally invariant grid construction     ... off
Angular grids for H and He will be reduced by one unit
Diffuse basis detected: some atoms will have their outermost
                        angular grid increased by 1.

Total number of grid points                  ...     4159
Total number of batches                      ...       37
Average number of points per batch           ...      112
Average number of grid points per atom       ...      594
UseSFitting                                  ... on

GRIDX 2
-------
General Integration Accuracy     IntAcc      ... 4.020
Radial Grid Type                 RadialGrid  ... OptM3 with GC (2021)
Angular Grid (max. ang.)         AngularGrid ... 2 (Lebedev-110)
Angular grid pruning method      GridPruning ... 4 (adaptive)
Weight generation scheme         WeightScheme... mBecke (2022)
Basis function cutoff            BFCut       ... 1.0000e-11
Integration weight cutoff        WCut        ... 1.0000e-14
Partially contracted basis set               ... on
Rotationally invariant grid construction     ... off
Angular grids for H and He will be reduced by one unit
Diffuse basis detected: some atoms will have their outermost
                        angular grid increased by 1.

Total number of grid points                  ...    10263
Total number of batches                      ...       84
Average number of points per batch           ...      122
Average number of grid points per atom       ...     1466
UseSFitting                                  ... on

GRIDX 3
-------
General Integration Accuracy     IntAcc      ... 4.338
Radial Grid Type                 RadialGrid  ... OptM3 with GC (2021)
Angular Grid (max. ang.)         AngularGrid ... 3 (Lebedev-194)
Angular grid pruning method      GridPruning ... 4 (adaptive)
Weight generation scheme         WeightScheme... mBecke (2022)
Basis function cutoff            BFCut       ... 1.0000e-11
Integration weight cutoff        WCut        ... 1.0000e-14
Partially contracted basis set               ... on
Rotationally invariant grid construction     ... off
Angular grids for H and He will be reduced by one unit
Diffuse basis detected: some atoms will have their outermost
                        angular grid increased by 1.

Total number of grid points                  ...    23123
Total number of batches                      ...      184
Average number of points per batch           ...      125
Average number of grid points per atom       ...     3303
UseSFitting                                  ... on
Initializing property integral containers    ... done (  0.0 sec)

SHARK setup successfully completed in   0.4 seconds

Maximum memory used throughout the entire STARTUP-calculation: 13.8 MB
[1741606102.467032] [ohm:3014340:0]        ib_iface.c:1059 UCX  ERROR ibv_create_cq(cqe=256) failed: Connection timed out
[1741606102.469753] [ohm:3014339:0]        ib_iface.c:1059 UCX  ERROR ibv_create_cq(cqe=256) failed: Connection timed out
[1741606102.476737] [ohm:3014345:0]        ib_iface.c:1059 UCX  ERROR ibv_create_cq(cqe=256) failed: Connection timed out
[1741606102.483445] [ohm:3014343:0]        ib_iface.c:1059 UCX  ERROR ibv_create_cq(cqe=256) failed: Connection timed out
[1741606102.518489] [ohm:3014382:0]        ib_iface.c:1059 UCX  ERROR ibv_create_cq(cqe=256) failed: Connection timed out
[1741606102.519098] [ohm:3014370:0]        ib_iface.c:1059 UCX  ERROR ibv_create_cq(cqe=256) failed: Connection timed out
[1741606102.525846] [ohm:3014374:0]        ib_iface.c:1059 UCX  ERROR ibv_create_cq(cqe=256) failed: Connection timed out
[1741606102.533032] [ohm:3014342:0]        ib_iface.c:1059 UCX  ERROR ibv_create_cq(cqe=256) failed: Connection timed out
[1741606102.537915] [ohm:3014346:0]        ib_iface.c:1059 UCX  ERROR ibv_create_cq(cqe=256) failed: Connection timed out
[1741606102.548367] [ohm:3014361:0]        ib_iface.c:1059 UCX  ERROR ibv_create_cq(cqe=256) failed: Connection timed out
[1741606102.598983] [ohm:3014353:0]        ib_iface.c:1059 UCX  ERROR ibv_create_cq(cqe=256) failed: Connection timed out
[1741606102.619326] [ohm:3014395:0]        ib_iface.c:1059 UCX  ERROR ibv_create_cq(cqe=256) failed: Connection timed out
[1741606102.625078] [ohm:3014376:0]        ib_iface.c:1059 UCX  ERROR ibv_create_cq(cqe=256) failed: Connection timed out
[1741606102.627485] [ohm:3014379:0]        ib_iface.c:1059 UCX  ERROR ibv_create_cq(cqe=256) failed: Connection timed out
[1741606102.630529] [ohm:3014341:0]        ib_iface.c:1059 UCX  ERROR ibv_create_cq(cqe=256) failed: Connection timed out
[1741606102.632489] [ohm:3014366:0]        ib_iface.c:1059 UCX  ERROR ibv_create_cq(cqe=256) failed: Connection timed out
[1741606102.645527] [ohm:3014349:0]        ib_iface.c:1059 UCX  ERROR ibv_create_cq(cqe=256) failed: Connection timed out
[1741606102.653219] [ohm:3014355:0]        ib_iface.c:1059 UCX  ERROR ibv_create_cq(cqe=256) failed: Connection timed out
[1741606102.673078] [ohm:3014347:0]        ib_iface.c:1059 UCX  ERROR ibv_create_cq(cqe=256) failed: Connection timed out
[1741606102.675644] [ohm:3014383:0]        ib_iface.c:1059 UCX  ERROR ibv_create_cq(cqe=256) failed: Connection timed out
[1741606102.676622] [ohm:3014344:0]        ib_iface.c:1059 UCX  ERROR ibv_create_cq(cqe=256) failed: Connection timed out
[1741606102.678510] [ohm:3014350:0]        ib_iface.c:1059 UCX  ERROR ibv_create_cq(cqe=256) failed: Connection timed out
[1741606102.679147] [ohm:3014359:0]        ib_iface.c:1059 UCX  ERROR ibv_create_cq(cqe=256) failed: Connection timed out
[1741606102.683356] [ohm:3014375:0]        ib_iface.c:1059 UCX  ERROR ibv_create_cq(cqe=256) failed: Connection timed out
[1741606102.696865] [ohm:3014378:0]        ib_iface.c:1059 UCX  ERROR ibv_create_cq(cqe=256) failed: Connection timed out
[1741606102.704672] [ohm:3014377:0]        ib_iface.c:1059 UCX  ERROR ibv_create_cq(cqe=256) failed: Connection timed out
[1741606102.707771] [ohm:3014381:0]        ib_iface.c:1059 UCX  ERROR ibv_create_cq(cqe=256) failed: Connection timed out
[1741606102.712220] [ohm:3014416:0]        ib_iface.c:1059 UCX  ERROR ibv_create_cq(cqe=256) failed: Connection timed out
[1741606102.720767] [ohm:3014410:0]        ib_iface.c:1059 UCX  ERROR ibv_create_cq(cqe=256) failed: Connection timed out
[1741606102.724307] [ohm:3014386:0]        ib_iface.c:1059 UCX  ERROR ibv_create_cq(cqe=256) failed: Connection timed out
[1741606102.727677] [ohm:3014438:0]        ib_iface.c:1059 UCX  ERROR ibv_create_cq(cqe=256) failed: Connection timed out
[1741606102.730567] [ohm:3014404:0]        ib_iface.c:1059 UCX  ERROR ibv_create_cq(cqe=256) failed: Connection timed out
[1741606102.730617] [ohm:3014451:0]        ib_iface.c:1059 UCX  ERROR ibv_create_cq(cqe=256) failed: Connection timed out
[1741606102.731755] [ohm:3014380:0]        ib_iface.c:1059 UCX  ERROR ibv_create_cq(cqe=256) failed: Connection timed out
[1741606102.737474] [ohm:3014468:0]        ib_iface.c:1059 UCX  ERROR ibv_create_cq(cqe=256) failed: Connection timed out
[1741606102.746016] [ohm:3014352:0]        ib_iface.c:1059 UCX  ERROR ibv_create_cq(cqe=256) failed: Connection timed out
[1741606102.746038] [ohm:3014384:0]        ib_iface.c:1059 UCX  ERROR ibv_create_cq(cqe=256) failed: Connection timed out
[1741606102.746634] [ohm:3014372:0]        ib_iface.c:1059 UCX  ERROR ibv_create_cq(cqe=256) failed: Connection timed out
[1741606102.747957] [ohm:3014448:0]        ib_iface.c:1059 UCX  ERROR ibv_create_cq(cqe=256) failed: Connection timed out
[1741606102.749209] [ohm:3014453:0]        ib_iface.c:1059 UCX  ERROR ibv_create_cq(cqe=256) failed: Connection timed out
[1741606102.751522] [ohm:3014443:0]        ib_iface.c:1059 UCX  ERROR ibv_create_cq(cqe=256) failed: Connection timed out
[1741606102.751937] [ohm:3014412:0]        ib_iface.c:1059 UCX  ERROR ibv_create_cq(cqe=256) failed: Connection timed out
[1741606102.758952] [ohm:3014457:0]        ib_iface.c:1059 UCX  ERROR ibv_create_cq(cqe=256) failed: Connection timed out
[1741606102.762284] [ohm:3014459:0]        ib_iface.c:1059 UCX  ERROR ibv_create_cq(cqe=256) failed: Connection timed out
[1741606102.762434] [ohm:3014482:0]        ib_iface.c:1059 UCX  ERROR ibv_create_cq(cqe=256) failed: Connection timed out
[1741606102.766097] [ohm:3014431:0]        ib_iface.c:1059 UCX  ERROR ibv_create_cq(cqe=256) failed: Connection timed out
[1741606102.774301] [ohm:3014396:0]        ib_iface.c:1059 UCX  ERROR ibv_create_cq(cqe=256) failed: Connection timed out
[1741606102.775669] [ohm:3014471:0]        ib_iface.c:1059 UCX  ERROR ibv_create_cq(cqe=256) failed: Connection timed out
[1741606102.783728] [ohm:3014463:0]        ib_iface.c:1059 UCX  ERROR ibv_create_cq(cqe=256) failed: Connection timed out
[1741606102.784044] [ohm:3014480:0]        ib_iface.c:1059 UCX  ERROR ibv_create_cq(cqe=256) failed: Connection timed out
[1741606102.787658] [ohm:3014405:0]        ib_iface.c:1059 UCX  ERROR ibv_create_cq(cqe=256) failed: Connection timed out
[1741606102.788447] [ohm:3014351:0]        ib_iface.c:1059 UCX  ERROR ibv_create_cq(cqe=256) failed: Connection timed out
[1741606102.789328] [ohm:3014425:0]        ib_iface.c:1059 UCX  ERROR ibv_create_cq(cqe=256) failed: Connection timed out
[1741606102.794028] [ohm:3014424:0]        ib_iface.c:1059 UCX  ERROR ibv_create_cq(cqe=256) failed: Connection timed out
[1741606102.796786] [ohm:3014419:0]        ib_iface.c:1059 UCX  ERROR ibv_create_cq(cqe=256) failed: Connection timed out
[1741606102.798028] [ohm:3014421:0]        ib_iface.c:1059 UCX  ERROR ibv_create_cq(cqe=256) failed: Connection timed out
[1741606102.799822] [ohm:3014492:0]        ib_iface.c:1059 UCX  ERROR ibv_create_cq(cqe=256) failed: Connection timed out
[1741606102.800015] [ohm:3014433:0]        ib_iface.c:1059 UCX  ERROR ibv_create_cq(cqe=256) failed: Connection timed out
[1741606102.800180] [ohm:3014427:0]        ib_iface.c:1059 UCX  ERROR ibv_create_cq(cqe=256) failed: Connection timed out
[1741606102.800448] [ohm:3014348:0]        ib_iface.c:1059 UCX  ERROR ibv_create_cq(cqe=256) failed: Connection timed out
[1741606102.801146] [ohm:3014391:0]        ib_iface.c:1059 UCX  ERROR ibv_create_cq(cqe=256) failed: Connection timed out
[1741606102.802624] [ohm:3014476:0]        ib_iface.c:1059 UCX  ERROR ibv_create_cq(cqe=256) failed: Connection timed out
[1741606102.803031] [ohm:3014475:0]        ib_iface.c:1059 UCX  ERROR ibv_create_cq(cqe=256) failed: Connection timed out
[1741606102.803233] [ohm:3014445:0]        ib_iface.c:1059 UCX  ERROR ibv_create_cq(cqe=256) failed: Connection timed out


           ************************************************************
           *        Program running with 64 parallel MPI-processes    *
           *              working on a common directory               *
           ************************************************************
-------------------------------------------------------------------------------
                                 ORCA GUESS
                   Start orbitals & Density for SCF / CASSCF
-------------------------------------------------------------------------------

------------
SCF SETTINGS
------------
Hamiltonian:
 Density Functional     Method          .... DFT(GTOs)
  Functional kind                       .... Exchange-Correlation
  Functional name                       .... wB97M-V exchange-correlation functional
  Functional family                     .... Hybrid MGGA
  Functional refs                              
    [ 0] N. Mardirossian and M. Head-Gordon.,  J. Chem. Phys. 144, 214110 (2016), doi: 10.1063/1.4952647
  Fraction of HF Exchange (short range) .... 0.1500
  Fraction of HF Exchange (long range)  .... 1.0000
  Range separation parameter mu         .... 0.3000
  Functional external parameters        .... 17
    Parameter  0 _cx00      =  8.500000e-01 : u^00 coefficient for exchange
    Parameter  1 _cx01      =  1.007000e+00 : u^01 coefficient for exchange
    Parameter  2 _cx10      =  2.590000e-01 : u^10 coefficient for exchange
    Parameter  3 _css00     =  4.430000e-01 : u^00 coefficient for same-spin correlation
    Parameter  4 _css04     = -1.437000e+00 : u^04 coefficient for same-spin correlation
    Parameter  5 _css10     = -4.535000e+00 : u^10 coefficient for same-spin correlation
    Parameter  6 _css20     = -3.390000e+00 : u^20 coefficient for same-spin correlation
    Parameter  7 _css43     =  4.278000e+00 : u^43 coefficient for same-spin correlation
    Parameter  8 _cos00     =  1.000000e+00 : u^00 coefficient for opposite-spin correlation
    Parameter  9 _cos10     =  1.358000e+00 : u^10 coefficient for opposite-spin correlation
    Parameter 10 _cos20     =  2.924000e+00 : u^20 coefficient for opposite-spin correlation
    Parameter 11 _cos21     = -8.812000e+00 : u^21 coefficient for opposite-spin correlation
    Parameter 12 _cos60     = -1.390000e+00 : u^60 coefficient for opposite-spin correlation
    Parameter 13 _cos61     =  9.142000e+00 : u^61 coefficient for opposite-spin correlation
    Parameter 14 _alpha     =  1.000000e+00 : fraction of HF exchange
    Parameter 15 _beta      = -8.500000e-01 : fraction of short-range exchange
    Parameter 16 _omega     =  3.000000e-01 : range-separation constant
 Long-range corrected/Screened/Range-Separated Hybrid DFT is turned on
   Amount of maximum screened exact exchange              ....  0.850000
   Range separation parameter mu (erf(mu*r12)/r12)        ....  0.300000
 RI-approximation to the Coulomb term is turned on
   Number of AuxJ basis functions       .... 191
   RIJ-COSX (HFX calculated with COS-X)).... on


General Settings:
 Integral files         IntName         .... orca
 Hartree-Fock type      HFTyp           .... UHF
 Total Charge           Charge          ....    0
 Multiplicity           Mult            ....    3
 Number of Electrons    NEL             ....   24
 Basis Dimension        Dim             ....  182
 Nuclear Repulsion      ENuc            ....     67.1280654582 Eh

Convergence Acceleration:
 AO-DIIS                CNVDIIS         .... on
   Start iteration      DIISMaxIt       ....    12
   Startup error        DIISStart       ....  0.200000
   # of expansion vecs  DIISMaxEq       ....     5
   Bias factor          DIISBfac        ....   1.050
   Max. coefficient     DIISMaxC        ....  10.000
 MO-DIIS                CNVKDIIS        .... off
 Trust-Rad. Augm. Hess. CNVTRAH         .... auto
   Auto Start mean grad. ratio tolernc. ....  1.125000
   Auto Start start iteration           ....    50
   Auto Start num. interpolation iter.  ....    10
   Max. Number of Micro iterations      ....    24
   Max. Number of Macro iterations      .... Maxiter - #DIIS iter
   Number of Davidson start vectors     ....     2
   Converg. threshold    (grad. norm)   ....   1.000e-05
   Grad. Scal. Fac. for Micro threshold ....   0.100
   Minimum threshold for Micro iter.    ....   1.000e-02
   NR start threshold (gradient norm)   ....   1.000e-04
   Initial trust radius                 ....   0.400
   Minimum AH scaling param. (alpha)    ....   1.000
   Maximum AH scaling param. (alpha)    .... 1000.000
   Quad. conv. algorithm                .... NR
   White noise on init. David. guess    .... on
   Maximum white noise                  ....   0.010
   Pseudo random numbers                .... off
   Inactive MOs                         .... canonical
   Orbital update algorithm             .... Taylor
   Preconditioner                       .... Diag
   Full preconditioner red. dimension   ....   250
 SOSCF                  CNVSOSCF        .... on
   Start iteration      SOSCFMaxIt      ....   150
   Startup grad/error   SOSCFStart      ....  0.003300
   Hessian update       SOSCFHessUp     .... L-BFGS
 Level Shifting         CNVShift        .... on
   Level shift para.    LevelShift      ....    0.2500
   Turn off err/grad.   ShiftErr        ....    0.0010
 Zerner damping         CNVZerner       .... off
 Static damping         CNVDamp         .... on
   Fraction old density DampFac         ....    0.7000
   Max. Damping (<1)    DampMax         ....    0.9800
   Min. Damping (>=0)   DampMin         ....    0.0000
   Turn off err/grad.   DampErr         ....    0.1000

SCF Procedure:
 Maximum # iterations   MaxIter         ....   125
 SCF integral mode      SCFMode         .... Direct
   Integral package                     .... SHARK and LIBINT hybrid scheme
 Reset frequency        DirectResetFreq ....    20
 Integral Threshold     Thresh          ....  2.500e-11 Eh
 Primitive CutOff       TCut            ....  2.500e-12 Eh

Convergence Tolerance:
 Convergence Check Mode ConvCheckMode   .... Total+1el-Energy
 Convergence forced     ConvForced      .... 1
 Energy Change          TolE            ....  1.000e-08 Eh
 1-El. energy change                    ....  1.000e-05 Eh
 Orbital Gradient       TolG            ....  1.000e-05
 Orbital Rotation angle TolX            ....  1.000e-05
 DIIS Error             TolErr          ....  5.000e-07

------------------------------
INITIAL GUESS: MODEL POTENTIAL
------------------------------
Loading Hartree-Fock densities                     ... done
Calculating cut-offs                               ... done
Initializing the effective Hamiltonian             ... done
Setting up the integral package (SHARK)            ... done
Starting the Coulomb interaction                   ... done (   0.0 sec)
Making the grid                                    ... done (   0.0 sec)
Mapping shells                                     ... done
Starting the XC term evaluation                    ... done (   0.0 sec)
  promolecular density results
     # of electrons  =     23.997562471
     EX              =    -19.434944168
     EC              =     -0.761274963
     EX+EC           =    -20.196219131
Transforming the Hamiltonian                       ... done (   0.0 sec)
Diagonalizing the Hamiltonian                      ... done (   0.0 sec)
Back transforming the eigenvectors                 ... done (   0.0 sec)
Now organizing SCF variables                       ... done
                      ------------------
                      INITIAL GUESS DONE (   0.1 sec)
                      ------------------
             **** ENERGY FILE WAS UPDATED (orca.en.tmp) ****
Finished Guess after   1.7 sec
Maximum memory used throughout the entire GUESS-calculation: 9.5 MB
[1741606104.688514] [ohm:3014666:0]        ib_iface.c:1059 UCX  ERROR ibv_create_cq(cqe=256) failed: Connection timed out
[1741606104.698373] [ohm:3014676:0]        ib_iface.c:1059 UCX  ERROR ibv_create_cq(cqe=256) failed: Connection timed out
[1741606104.703059] [ohm:3014671:0]        ib_iface.c:1059 UCX  ERROR ibv_create_cq(cqe=256) failed: Connection timed out
[1741606104.704711] [ohm:3014668:0]        ib_iface.c:1059 UCX  ERROR ibv_create_cq(cqe=256) failed: Connection timed out
[1741606104.713722] [ohm:3014674:0]        ib_iface.c:1059 UCX  ERROR ibv_create_cq(cqe=256) failed: Connection timed out
[1741606104.713982] [ohm:3014675:0]        ib_iface.c:1059 UCX  ERROR ibv_create_cq(cqe=256) failed: Connection timed out
[1741606104.718240] [ohm:3014667:0]        ib_iface.c:1059 UCX  ERROR ibv_create_cq(cqe=256) failed: Connection timed out
[1741606104.724658] [ohm:3014672:0]        ib_iface.c:1059 UCX  ERROR ibv_create_cq(cqe=256) failed: Connection timed out
[1741606104.730202] [ohm:3014670:0]        ib_iface.c:1059 UCX  ERROR ibv_create_cq(cqe=256) failed: Connection timed out
[1741606104.749675] [ohm:3014701:0]        ib_iface.c:1059 UCX  ERROR ibv_create_cq(cqe=256) failed: Connection timed out
[1741606104.765822] [ohm:3014669:0]        ib_iface.c:1059 UCX  ERROR ibv_create_cq(cqe=256) failed: Connection timed out
[1741606104.771237] [ohm:3014673:0]        ib_iface.c:1059 UCX  ERROR ibv_create_cq(cqe=256) failed: Connection timed out
[1741606104.783902] [ohm:3014692:0]        ib_iface.c:1059 UCX  ERROR ibv_create_cq(cqe=256) failed: Connection timed out
[1741606104.784102] [ohm:3014679:0]        ib_iface.c:1059 UCX  ERROR ibv_create_cq(cqe=256) failed: Connection timed out
[1741606104.784953] [ohm:3014698:0]        ib_iface.c:1059 UCX  ERROR ibv_create_cq(cqe=256) failed: Connection timed out
[1741606104.794016] [ohm:3014693:0]        ib_iface.c:1059 UCX  ERROR ibv_create_cq(cqe=256) failed: Connection timed out
[1741606104.803751] [ohm:3014677:0]        ib_iface.c:1059 UCX  ERROR ibv_create_cq(cqe=256) failed: Connection timed out
[1741606104.809644] [ohm:3014694:0]        ib_iface.c:1059 UCX  ERROR ibv_create_cq(cqe=256) failed: Connection timed out
[1741606104.815727] [ohm:3014695:0]        ib_iface.c:1059 UCX  ERROR ibv_create_cq(cqe=256) failed: Connection timed out
[1741606104.821755] [ohm:3014706:0]        ib_iface.c:1059 UCX  ERROR ibv_create_cq(cqe=256) failed: Connection timed out
[1741606104.821789] [ohm:3014725:0]        ib_iface.c:1059 UCX  ERROR ibv_create_cq(cqe=256) failed: Connection timed out
[1741606104.823021] [ohm:3014719:0]        ib_iface.c:1059 UCX  ERROR ibv_create_cq(cqe=256) failed: Connection timed out
[1741606104.830692] [ohm:3014723:0]        ib_iface.c:1059 UCX  ERROR ibv_create_cq(cqe=256) failed: Connection timed out
[1741606104.838372] [ohm:3014700:0]        ib_iface.c:1059 UCX  ERROR ibv_create_cq(cqe=256) failed: Connection timed out
[1741606104.850860] [ohm:3014722:0]        ib_iface.c:1059 UCX  ERROR ibv_create_cq(cqe=256) failed: Connection timed out
[1741606104.856681] [ohm:3014747:0]        ib_iface.c:1059 UCX  ERROR ibv_create_cq(cqe=256) failed: Connection timed out
[1741606104.874514] [ohm:3014776:0]        ib_iface.c:1059 UCX  ERROR ibv_create_cq(cqe=256) failed: Connection timed out
[1741606104.879385] [ohm:3014717:0]        ib_iface.c:1059 UCX  ERROR ibv_create_cq(cqe=256) failed: Connection timed out
[1741606104.881835] [ohm:3014768:0]        ib_iface.c:1059 UCX  ERROR ibv_create_cq(cqe=256) failed: Connection timed out
[1741606104.882804] [ohm:3014720:0]        ib_iface.c:1059 UCX  ERROR ibv_create_cq(cqe=256) failed: Connection timed out
[1741606104.885296] [ohm:3014795:0]        ib_iface.c:1059 UCX  ERROR ibv_create_cq(cqe=256) failed: Connection timed out
[1741606104.888791] [ohm:3014739:0]        ib_iface.c:1059 UCX  ERROR ibv_create_cq(cqe=256) failed: Connection timed out
[1741606104.892399] [ohm:3014727:0]        ib_iface.c:1059 UCX  ERROR ibv_create_cq(cqe=256) failed: Connection timed out
[1741606104.895634] [ohm:3014724:0]        ib_iface.c:1059 UCX  ERROR ibv_create_cq(cqe=256) failed: Connection timed out
[1741606104.901309] [ohm:3014805:0]        ib_iface.c:1059 UCX  ERROR ibv_create_cq(cqe=256) failed: Connection timed out
[1741606104.912872] [ohm:3014811:0]        ib_iface.c:1059 UCX  ERROR ibv_create_cq(cqe=256) failed: Connection timed out
[1741606104.917719] [ohm:3014696:0]        ib_iface.c:1059 UCX  ERROR ibv_create_cq(cqe=256) failed: Connection timed out
[1741606104.921347] [ohm:3014784:0]        ib_iface.c:1059 UCX  ERROR ibv_create_cq(cqe=256) failed: Connection timed out
[1741606104.926526] [ohm:3014761:0]        ib_iface.c:1059 UCX  ERROR ibv_create_cq(cqe=256) failed: Connection timed out
[1741606104.929002] [ohm:3014729:0]        ib_iface.c:1059 UCX  ERROR ibv_create_cq(cqe=256) failed: Connection timed out
[1741606104.945415] [ohm:3014773:0]        ib_iface.c:1059 UCX  ERROR ibv_create_cq(cqe=256) failed: Connection timed out
[1741606104.947596] [ohm:3014748:0]        ib_iface.c:1059 UCX  ERROR ibv_create_cq(cqe=256) failed: Connection timed out
[1741606104.949468] [ohm:3014790:0]        ib_iface.c:1059 UCX  ERROR ibv_create_cq(cqe=256) failed: Connection timed out
[1741606104.951110] [ohm:3014779:0]        ib_iface.c:1059 UCX  ERROR ibv_create_cq(cqe=256) failed: Connection timed out
[1741606104.956121] [ohm:3014740:0]        ib_iface.c:1059 UCX  ERROR ibv_create_cq(cqe=256) failed: Connection timed out
[1741606104.958688] [ohm:3014711:0]        ib_iface.c:1059 UCX  ERROR ibv_create_cq(cqe=256) failed: Connection timed out
[1741606104.959267] [ohm:3014726:0]        ib_iface.c:1059 UCX  ERROR ibv_create_cq(cqe=256) failed: Connection timed out
[1741606104.959386] [ohm:3014732:0]        ib_iface.c:1059 UCX  ERROR ibv_create_cq(cqe=256) failed: Connection timed out
[1741606104.960747] [ohm:3014728:0]        ib_iface.c:1059 UCX  ERROR ibv_create_cq(cqe=256) failed: Connection timed out
[1741606104.960742] [ohm:3014754:0]        ib_iface.c:1059 UCX  ERROR ibv_create_cq(cqe=256) failed: Connection timed out
[1741606104.960909] [ohm:3014781:0]        ib_iface.c:1059 UCX  ERROR ibv_create_cq(cqe=256) failed: Connection timed out
[1741606104.964358] [ohm:3014813:0]        ib_iface.c:1059 UCX  ERROR ibv_create_cq(cqe=256) failed: Connection timed out
[1741606104.967604] [ohm:3014809:0]        ib_iface.c:1059 UCX  ERROR ibv_create_cq(cqe=256) failed: Connection timed out
[1741606104.969430] [ohm:3014757:0]        ib_iface.c:1059 UCX  ERROR ibv_create_cq(cqe=256) failed: Connection timed out
[1741606104.973231] [ohm:3014792:0]        ib_iface.c:1059 UCX  ERROR ibv_create_cq(cqe=256) failed: Connection timed out
[1741606104.973422] [ohm:3014786:0]        ib_iface.c:1059 UCX  ERROR ibv_create_cq(cqe=256) failed: Connection timed out
[1741606104.973746] [ohm:3014798:0]        ib_iface.c:1059 UCX  ERROR ibv_create_cq(cqe=256) failed: Connection timed out
[1741606104.973939] [ohm:3014734:0]        ib_iface.c:1059 UCX  ERROR ibv_create_cq(cqe=256) failed: Connection timed out
[1741606104.974771] [ohm:3014756:0]        ib_iface.c:1059 UCX  ERROR ibv_create_cq(cqe=256) failed: Connection timed out
[1741606104.974968] [ohm:3014730:0]        ib_iface.c:1059 UCX  ERROR ibv_create_cq(cqe=256) failed: Connection timed out
[1741606104.976280] [ohm:3014802:0]        ib_iface.c:1059 UCX  ERROR ibv_create_cq(cqe=256) failed: Connection timed out
[1741606104.977279] [ohm:3014767:0]        ib_iface.c:1059 UCX  ERROR ibv_create_cq(cqe=256) failed: Connection timed out
[1741606104.977440] [ohm:3014678:0]        ib_iface.c:1059 UCX  ERROR ibv_create_cq(cqe=256) failed: Connection timed out
[1741606104.977876] [ohm:3014721:0]        ib_iface.c:1059 UCX  ERROR ibv_create_cq(cqe=256) failed: Connection timed out


           ************************************************************
           *        Program running with 64 parallel MPI-processes    *
           *              working on a common directory               *
           ************************************************************

-------------------------------------------------------------------------------------------
                                      ORCA LEAN-SCF
                              memory conserving SCF solver
-------------------------------------------------------------------------------------------

----------------------------------------D-I-I-S--------------------------------------------
Iteration    Energy (Eh)           Delta-E    RMSDP     MaxDP     DIISErr   Damp  Time(sec)
-------------------------------------------------------------------------------------------
               ***  Starting incremental Fock matrix formation  ***
    1    -153.6900948838450063     0.00e+00  7.59e-04  2.10e-02  1.11e-01  0.700   0.3
    2    -153.7207738787849962    -3.07e-02  6.57e-04  1.84e-02  6.81e-02  0.700   0.3
                               ***Turning on AO-DIIS***
    3    -153.7368683375908063    -1.61e-02  5.28e-04  1.97e-02  4.14e-02  0.700   0.3
    4    -153.7469603288132589    -1.01e-02  1.34e-03  5.24e-02  3.39e-02  0.000   0.3
    5    -153.7714422540410624    -2.45e-02  1.53e-04  5.00e-03  1.35e-02  0.000   0.3
    6    -153.7722782202047256    -8.36e-04  1.15e-04  3.38e-03  7.28e-03  0.000   0.3
    7    -153.7727198352595224    -4.42e-04  7.09e-05  2.19e-03  5.62e-03  0.000   0.3
                              *** Initializing SOSCF ***
---------------------------------------S-O-S-C-F--------------------------------------
Iteration    Energy (Eh)           Delta-E    RMSDP     MaxDP     MaxGrad    Time(sec)
--------------------------------------------------------------------------------------
    8    -153.7729227643720833    -2.03e-04  3.93e-05  1.10e-03  2.55e-03     0.3
               *** Restarting incremental Fock matrix formation ***
    9    -153.7729798508796648    -5.71e-05  1.84e-05  4.49e-04  1.39e-03     0.3
   10    -153.7729927777675130    -1.29e-05  2.81e-05  6.83e-04  5.58e-04     0.2
   11    -153.7729993186474644    -6.54e-06  1.04e-05  3.24e-04  1.81e-04     0.2
   12    -153.7730005570336402    -1.24e-06  3.41e-06  9.80e-05  1.32e-04     0.2
   13    -153.7730007444352509    -1.87e-07  1.08e-05  4.56e-04  1.30e-04     0.2
   14    -153.7730012572698683    -5.13e-07  1.22e-05  6.39e-04  1.19e-04     0.3
   15    -153.7730018074520899    -5.50e-07  2.65e-05  1.46e-03  1.20e-04     0.3
   16    -153.7730028467053671    -1.04e-06  2.77e-05  1.54e-03  1.84e-04     0.2
   17    -153.7730037912339185    -9.45e-07  1.65e-05  8.98e-04  1.78e-04     0.2
   18    -153.7730042971529087    -5.06e-07  2.98e-06  8.69e-05  1.04e-04     0.2
   19    -153.7730044186605483    -1.22e-07  1.78e-06  8.06e-05  3.81e-05     0.3
   20    -153.7730044422322067    -2.36e-08  7.52e-07  2.27e-05  1.70e-05     0.3
   21    -153.7730044459022452    -3.67e-09  4.32e-07  1.74e-05  5.84e-06     0.3
                 **** Energy Check signals convergence ****

               *****************************************************
               *                     SUCCESS                       *
               *           SCF CONVERGED AFTER  21 CYCLES          *
               *****************************************************

Recomputing exchange energy using gridx3       ... done (    0.164 sec)
Old exchange energy                            :     -6.184998301 Eh
New exchange energy                            :     -6.185005412 Eh
Exchange energy change after final integration :     -0.000007112 Eh
Total energy after final integration           :   -153.773011558 Eh
             **** ENERGY FILE WAS UPDATED (orca.en.tmp) ****

----------------
TOTAL SCF ENERGY
----------------

Total Energy       :       -153.77301155756012 Eh           -4184.37637 eV

Components:
Nuclear Repulsion  :         67.12806545820722 Eh            1826.64753 eV
Electronic Energy  :       -220.90106990410948 Eh           -6011.02371 eV
One Electron Energy:       -340.88607287829200 Eh           -9275.98162 eV
Two Electron Energy:        119.98500297418252 Eh            3264.95792 eV

Virial components:
Potential Energy   :       -306.88141585648856 Eh           -8350.66787 eV
Kinetic Energy     :        153.10840429892843 Eh            4166.29149 eV
Virial Ratio       :          2.00434076275352

DFT components:
N(Alpha)           :       12.999985288761 electrons
N(Beta)            :       10.999981948791 electrons
N(Total)           :       23.999967237552 electrons
E(XC)              :      -14.656024266377 Eh       

---------------
SCF CONVERGENCE
---------------

  Last Energy change         ...    3.6700e-09  Tolerance :   1.0000e-08
  Last MAX-Density change    ...    1.7432e-05  Tolerance :   1.0000e-07
  Last RMS-Density change    ...    4.3165e-07  Tolerance :   5.0000e-09
  Last DIIS Error            ...    2.5503e-03  Tolerance :   5.0000e-07
  Last Orbital Gradient      ...    5.8376e-06  Tolerance :   1.0000e-05
  Last Orbital Rotation      ...    8.2212e-05  Tolerance :   1.0000e-05


----------------------
UHF SPIN CONTAMINATION
----------------------

Warning: in a DFT calculation there is little theoretical justification to 
         calculate <S**2> as in Hartree-Fock theory. We will do it anyways
         but you should keep in mind that the values have only limited relevance

Expectation value of <S**2>     :     2.009285
Ideal value S*(S+1) for S=1.0   :     2.000000
Deviation                       :     0.009285

----------------
ORBITAL ENERGIES
----------------
                 SPIN UP ORBITALS
  NO   OCC          E(Eh)            E(eV) 
   0   1.0000     -19.386093      -527.5224 
   1   1.0000     -10.428311      -283.7688 
   2   1.0000     -10.365927      -282.0712 
   3   1.0000      -1.169532       -31.8246 
   4   1.0000      -0.855632       -23.2829 
   5   1.0000      -0.739294       -20.1172 
   6   1.0000      -0.600582       -16.3427 
   7   1.0000      -0.588021       -16.0009 
   8   1.0000      -0.541368       -14.7314 
   9   1.0000      -0.528468       -14.3803 
  10   1.0000      -0.430668       -11.7191 
  11   1.0000      -0.408094       -11.1048 
  12   1.0000      -0.321175        -8.7396 
  13   0.0000       0.040056         1.0900 
  14   0.0000       0.059737         1.6255 
  15   0.0000       0.080026         2.1776 
  16   0.0000       0.084066         2.2875 
  17   0.0000       0.112696         3.0666 
  18   0.0000       0.124430         3.3859 
  19   0.0000       0.130815         3.5597 
  20   0.0000       0.145374         3.9558 
  21   0.0000       0.175503         4.7757 
  22   0.0000       0.184651         5.0246 
  23   0.0000       0.198639         5.4052 

                 SPIN DOWN ORBITALS
  NO   OCC          E(Eh)            E(eV) 
   0   1.0000     -19.363336      -526.9032 
   1   1.0000     -10.430103      -283.8175 
   2   1.0000     -10.352737      -281.7123 
   3   1.0000      -1.118741       -30.4425 
   4   1.0000      -0.822741       -22.3879 
   5   1.0000      -0.713467       -19.4144 
   6   1.0000      -0.576449       -15.6860 
   7   1.0000      -0.539294       -14.6749 
   8   1.0000      -0.521433       -14.1889 
   9   1.0000      -0.499891       -13.6027 
  10   1.0000      -0.377765       -10.2795 
  11   0.0000      -0.058297        -1.5863 
  12   0.0000       0.003511         0.0955 
  13   0.0000       0.038964         1.0603 
  14   0.0000       0.059607         1.6220 
  15   0.0000       0.079443         2.1618 
  16   0.0000       0.085491         2.3263 
  17   0.0000       0.113190         3.0800 
  18   0.0000       0.124565         3.3896 
  19   0.0000       0.137598         3.7442 
  20   0.0000       0.146621         3.9898 
  21   0.0000       0.180291         4.9060 
*Only the first 10 virtual orbitals were printed.

                    ********************************
                    * MULLIKEN POPULATION ANALYSIS *
                    ********************************

--------------------------------------------
MULLIKEN ATOMIC CHARGES AND SPIN POPULATIONS
--------------------------------------------
   0 O :   -0.334023    0.876116
   1 C :    0.064176    0.001186
   2 C :   -0.645591    0.868849
   3 H :    0.168521    0.087136
   4 H :    0.212925    0.119039
   5 H :    0.268561    0.020476
   6 H :    0.265432    0.027198
Sum of atomic charges         :    0.0000000
Sum of atomic spin populations:    2.0000000

-----------------------------------------------------
MULLIKEN REDUCED ORBITAL CHARGES AND SPIN POPULATIONS
-----------------------------------------------------
CHARGE
  0 O s       :     3.995383  s :     3.995383
      pz      :     1.879960  p :     4.316324
      px      :     1.115958
      py      :     1.320407
      dz2     :     0.002367  d :     0.021004
      dxz     :    -0.000023
      dyz     :     0.002748
      dx2y2   :     0.006996
      dxy     :     0.008916
      f0      :     0.000163  f :     0.001311
      f+1     :     0.000048
      f-1     :     0.000324
      f+2     :     0.000176
      f-2     :     0.000007
      f+3     :     0.000309
      f-3     :     0.000285

  1 C s       :     3.186353  s :     3.186353
      pz      :     0.855850  p :     2.570462
      px      :     1.087191
      py      :     0.627422
      dz2     :     0.013956  d :     0.168246
      dxz     :     0.037298
      dyz     :     0.070673
      dx2y2   :     0.003802
      dxy     :     0.042517
      f0      :     0.002457  f :     0.010763
      f+1     :     0.000755
      f-1     :     0.001618
      f+2     :     0.002334
      f-2     :     0.000243
      f+3     :     0.001804
      f-3     :     0.001551

  2 C s       :     3.603358  s :     3.603358
      pz      :     0.955784  p :     3.013207
      px      :     1.003055
      py      :     1.054368
      dz2     :     0.001549  d :     0.025639
      dxz     :    -0.001541
      dyz     :     0.008490
      dx2y2   :     0.006840
      dxy     :     0.010301
      f0      :     0.000929  f :     0.003386
      f+1     :     0.000674
      f-1     :     0.000696
      f+2     :     0.000225
      f-2     :     0.000398
      f+3     :     0.000339
      f-3     :     0.000126

  3 H s       :     0.784702  s :     0.784702
      pz      :     0.009735  p :     0.044084
      px      :     0.018556
      py      :     0.015793
      dz2     :     0.000577  d :     0.002694
      dxz     :     0.000503
      dyz     :     0.000260
      dx2y2   :     0.000752
      dxy     :     0.000602

  4 H s       :     0.755506  s :     0.755506
      pz      :     0.007823  p :     0.029371
      px      :     0.015890
      py      :     0.005658
      dz2     :     0.000526  d :     0.002198
      dxz     :     0.000421
      dyz     :     0.000311
      dx2y2   :     0.000569
      dxy     :     0.000372

  5 H s       :     0.687914  s :     0.687914
      pz      :     0.009585  p :     0.041237
      px      :     0.018541
      py      :     0.013112
      dz2     :     0.000316  d :     0.002289
      dxz     :     0.000282
      dyz     :     0.000527
      dx2y2   :     0.000737
      dxy     :     0.000427

  6 H s       :     0.686306  s :     0.686306
      pz      :     0.016777  p :     0.045876
      px      :     0.018091
      py      :     0.011007
      dz2     :     0.000649  d :     0.002386
      dxz     :     0.000400
      dyz     :     0.000408
      dx2y2   :     0.000599
      dxy     :     0.000330


SPIN
  0 O s       :     0.003454  s :     0.003454
      pz      :     0.040816  p :     0.877215
      px      :     0.805676
      py      :     0.030723
      dz2     :    -0.000068  d :    -0.004355
      dxz     :    -0.000322
      dyz     :     0.000149
      dx2y2   :     0.000469
      dxy     :    -0.004583
      f0      :     0.000041  f :    -0.000199
      f+1     :     0.000033
      f-1     :     0.000035
      f+2     :    -0.000035
      f-2     :     0.000005
      f+3     :    -0.000100
      f-3     :    -0.000179

  1 C s       :    -0.003101  s :    -0.003101
      pz      :    -0.023695  p :    -0.085053
      px      :    -0.020503
      py      :    -0.040855
      dz2     :     0.003085  d :     0.086826
      dxz     :     0.036302
      dyz     :     0.001081
      dx2y2   :     0.003686
      dxy     :     0.042671
      f0      :     0.000162  f :     0.002515
      f+1     :     0.000511
      f-1     :     0.000309
      f+2     :     0.000065
      f-2     :     0.000191
      f+3     :     0.001251
      f-3     :     0.000026

  2 C s       :    -0.027311  s :    -0.027311
      pz      :     0.035055  p :     0.906346
      px      :     0.530958
      py      :     0.340332
      dz2     :     0.000868  d :    -0.009101
      dxz     :    -0.001840
      dyz     :    -0.001919
      dx2y2   :    -0.001656
      dxy     :    -0.004554
      f0      :    -0.000230  f :    -0.001084
      f+1     :    -0.000049
      f-1     :    -0.000059
      f+2     :    -0.000009
      f-2     :    -0.000289
      f+3     :    -0.000357
      f-3     :    -0.000092

  3 H s       :     0.080996  s :     0.080996
      pz      :    -0.000073  p :     0.006096
      px      :     0.004269
      py      :     0.001900
      dz2     :     0.000007  d :     0.000045
      dxz     :     0.000056
      dyz     :    -0.000018
      dx2y2   :    -0.000007
      dxy     :     0.000006

  4 H s       :     0.113553  s :     0.113553
      pz      :     0.001882  p :     0.005406
      px      :     0.004179
      py      :    -0.000655
      dz2     :     0.000033  d :     0.000080
      dxz     :     0.000020
      dyz     :     0.000011
      dx2y2   :     0.000002
      dxy     :     0.000015

  5 H s       :    -0.005006  s :    -0.005006
      pz      :     0.000830  p :     0.024434
      px      :     0.014649
      py      :     0.008955
      dz2     :     0.000065  d :     0.001048
      dxz     :     0.000110
      dyz     :     0.000097
      dx2y2   :     0.000694
      dxy     :     0.000084

  6 H s       :     0.001460  s :     0.001460
      pz      :     0.000794  p :     0.024645
      px      :     0.016022
      py      :     0.007829
      dz2     :     0.000143  d :     0.001094
      dxz     :     0.000163
      dyz     :     0.000171
      dx2y2   :     0.000585
      dxy     :     0.000031



                     *******************************
                     * LOEWDIN POPULATION ANALYSIS *
                     *******************************

-------------------------------------------
LOEWDIN ATOMIC CHARGES AND SPIN POPULATIONS
-------------------------------------------
   0 O :    0.022961    0.817082
   1 C :   -0.251279    0.205624
   2 C :    0.270426    0.673893
   3 H :    0.027933    0.049514
   4 H :    0.088391    0.084554
   5 H :   -0.081864    0.086775
   6 H :   -0.076567    0.082559

----------------------------------------------------
LOEWDIN REDUCED ORBITAL CHARGES AND SPIN POPULATIONS
----------------------------------------------------
CHARGE
  0 O s       :     3.470000  s :     3.470000
      pz      :     1.711692  p :     4.223577
      px      :     1.050307
      py      :     1.461578
      dz2     :     0.031495  d :     0.279209
      dxz     :     0.004905
      dyz     :     0.095637
      dx2y2   :     0.064782
      dxy     :     0.082390
      f0      :     0.000471  f :     0.004254
      f+1     :     0.000088
      f-1     :     0.000708
      f+2     :     0.000876
      f-2     :     0.000009
      f+3     :     0.001228
      f-3     :     0.000873

  1 C s       :     2.682431  s :     2.682431
      pz      :     0.897193  p :     2.600357
      px      :     0.900301
      py      :     0.802863
      dz2     :     0.175861  d :     0.886938
      dxz     :     0.151675
      dyz     :     0.279687
      dx2y2   :     0.158743
      dxy     :     0.120971
      f0      :     0.015134  f :     0.081553
      f+1     :     0.004802
      f-1     :     0.012729
      f+2     :     0.017019
      f-2     :     0.004946
      f+3     :     0.012028
      f-3     :     0.014895

  2 C s       :     2.743828  s :     2.743828
      pz      :     0.906048  p :     2.595973
      px      :     0.817105
      py      :     0.872820
      dz2     :     0.112450  d :     0.370453
      dxz     :     0.106035
      dyz     :     0.095796
      dx2y2   :     0.022153
      dxy     :     0.034020
      f0      :     0.004938  f :     0.019320
      f+1     :     0.003888
      f-1     :     0.003913
      f+2     :     0.000833
      f-2     :     0.002683
      f+3     :     0.001995
      f-3     :     0.001070

  3 H s       :     0.677732  s :     0.677732
      pz      :     0.079040  p :     0.266383
      px      :     0.121993
      py      :     0.065350
      dz2     :     0.005131  d :     0.027952
      dxz     :     0.007102
      dyz     :     0.002954
      dx2y2   :     0.006738
      dxy     :     0.006027

  4 H s       :     0.666066  s :     0.666066
      pz      :     0.074600  p :     0.224414
      px      :     0.097892
      py      :     0.051922
      dz2     :     0.004202  d :     0.021129
      dxz     :     0.005187
      dyz     :     0.003464
      dx2y2   :     0.004385
      dxy     :     0.003891

  5 H s       :     0.742337  s :     0.742337
      pz      :     0.080055  p :     0.306813
      px      :     0.102404
      py      :     0.124354
      dz2     :     0.004090  d :     0.032715
      dxz     :     0.003700
      dyz     :     0.006924
      dx2y2   :     0.009664
      dxy     :     0.008337

  6 H s       :     0.734690  s :     0.734690
      pz      :     0.094934  p :     0.308413
      px      :     0.107183
      py      :     0.106297
      dz2     :     0.006821  d :     0.033463
      dxz     :     0.006856
      dyz     :     0.006766
      dx2y2   :     0.007073
      dxy     :     0.005948


SPIN
  0 O s       :     0.011760  s :     0.011760
      pz      :     0.047357  p :     0.788797
      px      :     0.721699
      py      :     0.019741
      dz2     :     0.001844  d :     0.016579
      dxz     :     0.003170
      dyz     :     0.000645
      dx2y2   :     0.000034
      dxy     :     0.010886
      f0      :    -0.000016  f :    -0.000054
      f+1     :     0.000021
      f-1     :     0.000001
      f+2     :     0.000022
      f-2     :     0.000005
      f+3     :     0.000114
      f-3     :    -0.000200

  1 C s       :    -0.006788  s :    -0.006788
      pz      :    -0.017215  p :    -0.030392
      px      :     0.000895
      py      :    -0.014073
      dz2     :     0.012608  d :     0.222626
      dxz     :     0.084147
      dyz     :     0.012596
      dx2y2   :     0.004429
      dxy     :     0.108847
      f0      :     0.001709  f :     0.020177
      f+1     :     0.003097
      f-1     :     0.001930
      f+2     :     0.000744
      f-2     :     0.002641
      f+3     :     0.009578
      f-3     :     0.000478

  2 C s       :     0.012545  s :     0.012545
      pz      :     0.024368  p :     0.665598
      px      :     0.391781
      py      :     0.249449
      dz2     :    -0.001822  d :    -0.003582
      dxz     :     0.003248
      dyz     :    -0.002305
      dx2y2   :    -0.000319
      dxy     :    -0.002384
      f0      :    -0.000454  f :    -0.000668
      f+1     :     0.000068
      f-1     :    -0.000171
      f+2     :    -0.000036
      f-2     :    -0.000323
      f+3     :    -0.000268
      f-3     :     0.000516

  3 H s       :     0.048016  s :     0.048016
      pz      :    -0.001353  p :     0.001970
      px      :     0.002968
      py      :     0.000355
      dz2     :    -0.000018  d :    -0.000472
      dxz     :     0.000031
      dyz     :    -0.000166
      dx2y2   :    -0.000157
      dxy     :    -0.000162

  4 H s       :     0.077590  s :     0.077590
      pz      :     0.002983  p :     0.007441
      px      :     0.003912
      py      :     0.000546
      dz2     :     0.000025  d :    -0.000478
      dxz     :    -0.000165
      dyz     :    -0.000148
      dx2y2   :    -0.000047
      dxy     :    -0.000142

  5 H s       :    -0.012029  s :    -0.012029
      pz      :     0.002489  p :     0.087275
      px      :     0.049775
      py      :     0.035010
      dz2     :     0.000346  d :     0.011529
      dxz     :     0.001116
      dyz     :     0.000469
      dx2y2   :     0.008316
      dxy     :     0.001282

  6 H s       :    -0.011989  s :    -0.011989
      pz      :     0.003016  p :     0.082965
      px      :     0.049899
      py      :     0.030051
      dz2     :     0.000554  d :     0.011582
      dxz     :     0.001833
      dyz     :     0.002228
      dx2y2   :     0.006736
      dxy     :     0.000230



                      *****************************
                      * MAYER POPULATION ANALYSIS *
                      *****************************

  NA   - Mulliken gross atomic population
  ZA   - Total nuclear charge
  QA   - Mulliken gross atomic charge
  VA   - Mayer's total valence
  BVA  - Mayer's bonded valence
  FA   - Mayer's free valence

  ATOM       NA         ZA         QA         VA         BVA        FA
  0 O      8.3340     8.0000    -0.3340     1.8230     1.1120     0.7110
  1 C      5.9358     6.0000     0.0642     3.6008     3.5853     0.0156
  2 C      6.6456     6.0000    -0.6456     3.5412     2.7630     0.7782
  3 H      0.8315     1.0000     0.1685     1.0408     1.0347     0.0061
  4 H      0.7871     1.0000     0.2129     0.9977     0.9836     0.0141
  5 H      0.7314     1.0000     0.2686     0.9159     0.9158     0.0002
  6 H      0.7346     1.0000     0.2654     0.9404     0.9400     0.0004

  Mayer bond orders larger than 0.100000
B(  0-O ,  1-C ) :   0.9523 B(  1-C ,  2-C ) :   0.8135 B(  1-C ,  3-H ) :   0.9593 
B(  1-C ,  4-H ) :   0.9084 B(  2-C ,  5-H ) :   0.9497 B(  2-C ,  6-H ) :   0.9417 


-------
TIMINGS
-------

Total SCF time: 0 days 0 hours 0 min 7 sec 

Total time                  ....       7.677 sec
Sum of individual times     ....       7.646 sec  ( 99.6%)

SCF preparation             ....       1.671 sec  ( 21.8%)
Fock matrix formation       ....       4.584 sec  ( 59.7%)
  Startup                   ....       0.079 sec  (  1.7% of F)
  Split-RI-J                ....       0.482 sec  ( 10.5% of F)
  Chain of spheres X        ....       2.557 sec  ( 55.8% of F)
  XC integration            ....       1.166 sec  ( 25.4% of F)
    XC Preparation          ....       0.000 sec  (  0.0% of XC)
    Basis function eval.    ....       0.053 sec  (  4.6% of XC)
    Density eval.           ....       0.223 sec  ( 19.1% of XC)
    XC-Functional eval.     ....       0.016 sec  (  1.3% of XC)
    XC-Potential eval.      ....       0.285 sec  ( 24.4% of XC)
Diagonalization             ....       0.000 sec  (  0.0%)
Density matrix formation    ....       0.158 sec  (  2.1%)
Total Energy calculation    ....       0.144 sec  (  1.9%)
Population analysis         ....       0.056 sec  (  0.7%)
[...]
[1741606123.330113] [ohm:3015872:0]        ib_iface.c:1059 UCX  ERROR ibv_create_cq(cqe=256) failed: Connection timed out
[1741606123.330346] [ohm:3015876:0]        ib_iface.c:1059 UCX  ERROR ibv_create_cq(cqe=256) failed: Connection timed out
[1741606123.335438] [ohm:3015806:0]        ib_iface.c:1059 UCX  ERROR ibv_create_cq(cqe=256) failed: Connection timed out
[1741606123.335699] [ohm:3015889:0]        ib_iface.c:1059 UCX  ERROR ibv_create_cq(cqe=256) failed: Connection timed out
[1741606123.336137] [ohm:3015856:0]        ib_iface.c:1059 UCX  ERROR ibv_create_cq(cqe=256) failed: Connection timed out
[1741606123.336695] [ohm:3015778:0]        ib_iface.c:1059 UCX  ERROR ibv_create_cq(cqe=256) failed: Connection timed out
[1741606123.337266] [ohm:3015783:0]        ib_iface.c:1059 UCX  ERROR ibv_create_cq(cqe=256) failed: Connection timed out
[1741606123.339232] [ohm:3015839:0]        ib_iface.c:1059 UCX  ERROR ibv_create_cq(cqe=256) failed: Connection timed out
[1741606123.339414] [ohm:3015843:0]        ib_iface.c:1059 UCX  ERROR ibv_create_cq(cqe=256) failed: Connection timed out
[1741606123.340638] [ohm:3015813:0]        ib_iface.c:1059 UCX  ERROR ibv_create_cq(cqe=256) failed: Connection timed out


           ************************************************************
           *        Program running with 64 parallel MPI-processes    *
           *              working on a common directory               *
           ************************************************************

------------------------------------------------------------------------------
                              ORCA PROPERTY CALCULATIONS
------------------------------------------------------------------------------

GBWName                                 ... orca.gbw
Number of atoms                         ...      7
Number of basis functions               ...    182
Max core memory                         ...   1024 MB

Electric properties:
Dipole moment                           ... YES
Quadrupole moment                       ...  NO
Static polarizability (Dipole/Dipole)   ...  NO
Static polarizability (Dipole/Quad.)    ...  NO
Static polarizability (Quad./Quad.)     ...  NO
Static polarizability (Velocity)        ...  NO

Atomic electric properties:
Dipole moment                           ...  NO
Quadrupole moment                       ...  NO
Static polarizability                   ...  NO

Choice of electric origin               ... Center of mass
Position of electric origin             ...     0.767499     0.123651     0.136682

General magnetic properties:
Magnetizability                         ...  NO

EPR properties:
g-Tensor (aka g-matrix)                 ...  NO
Zero-Field splitting spin-orbit         ...  NO
Zero-field splitting spin-spin          ...  NO
Hyperfine couplings                     ...  NO (   0 nuclei)
Quadrupole couplings                    ...  NO (   0 nuclei)
Contact density                         ...  NO (   0 nuclei)

NMR properties:
Chemical shifts                         ...  NO (   0 nuclei)
Spin-rotation constants                 ...  NO (   0 nuclei)
Spin-spin couplings                     ...  NO (   0 nuclei,    0 pairs)

Choice of magnetic origin               ... GIAO
Position of magnetic origin             ...     0.000000     0.000000     0.000000

Properties with geometric perturbations:
SCF Hessian                             ...  NO
IR spectrum                             ...  NO
VCD spectrum                            ...  NO
X-ray spectroscopy properties:
SCF XES/XAS/RIXS spectra                ...  NO


-------------
DIPOLE MOMENT
-------------

Method             : SCF
Type of density    : Electron Density
Multiplicity       :   3
Irrep              :   0
Energy             :  -153.7730115575601246 Eh
Relativity type    : 
Basis              : AO
                                X                 Y                 Z
Electronic contribution:      0.021950390       2.278624075       0.934365180
Nuclear contribution   :      0.001466446      -3.091956619      -0.884992986
                        -----------------------------------------
Total Dipole Moment    :      0.023416835      -0.813332543       0.049372194
                        -----------------------------------------
Magnitude (a.u.)       :      0.815166111
Magnitude (Debye)      :      2.071987590



--------------------
Rotational spectrum 
--------------------
 
Rotational constants in cm-1:             1.244939             0.366851             0.304948 
Rotational constants in MHz :         37322.340602         10997.906454          9142.113981 

Dipole components along the rotational axes: 
x,y,z [a.u.] :    -0.532733    -0.613775    -0.063020 
x,y,z [Debye]:    -1.354098    -1.560093    -0.160184 

 

-------------
DIPOLE MOMENT
-------------

Method             : TDA/CIS
Type of density    : Electron Density
Level              : Relaxed density
State              :   1
Multiplicity       :   3
Irrep              :   0
Energy             :     0.0000000000000000 Eh
Relativity type    : 
Basis              : AO
                                X                 Y                 Z
Electronic contribution:     -0.016391852       1.809407727       0.367364002
Nuclear contribution   :      0.001466446      -3.091956619      -0.884992986
                        -----------------------------------------
Total Dipole Moment    :     -0.014925407      -1.282548891      -0.517628984
                        -----------------------------------------
Magnitude (a.u.)       :      1.383146482
Magnitude (Debye)      :      3.515678962



--------------------
Rotational spectrum 
--------------------
 
Rotational constants in cm-1:             1.244939             0.366851             0.304948 
Rotational constants in MHz :         37322.340602         10997.906454          9142.113981 

Dipole components along the rotational axes: 
x,y,z [a.u.] :    -1.266215    -0.556215    -0.020428 
x,y,z [Debye]:    -3.218464    -1.413787    -0.051924 

 

Dipole moment calculation done in   0.0 sec 

Maximum memory used throughout the entire PROP-calculation: 7.4 MB
[1741606125.049485] [ohm:3016081:0]        ib_iface.c:1059 UCX  ERROR ibv_create_cq(cqe=256) failed: Connection timed out
[1741606125.055868] [ohm:3016079:0]        ib_iface.c:1059 UCX  ERROR ibv_create_cq(cqe=256) failed: Connection timed out
[1741606125.069503] [ohm:3016082:0]        ib_iface.c:1059 UCX  ERROR ibv_create_cq(cqe=256) failed: Connection timed out
[1741606125.086710] [ohm:3016080:0]        ib_iface.c:1059 UCX  ERROR ibv_create_cq(cqe=256) failed: Connection timed out
[1741606125.103415] [ohm:3016091:0]        ib_iface.c:1059 UCX  ERROR ibv_create_cq(cqe=256) failed: Connection timed out
[1741606125.105343] [ohm:3016093:0]        ib_iface.c:1059 UCX  ERROR ibv_create_cq(cqe=256) failed: Connection timed out
[1741606125.105970] [ohm:3016133:0]        ib_iface.c:1059 UCX  ERROR ibv_create_cq(cqe=256) failed: Connection timed out
[1741606125.110432] [ohm:3016216:0]        ib_iface.c:1059 UCX  ERROR ibv_create_cq(cqe=256) failed: Connection timed out
[1741606125.115126] [ohm:3016088:0]        ib_iface.c:1059 UCX  ERROR ibv_create_cq(cqe=256) failed: Connection timed out
[1741606125.115988] [ohm:3016092:0]        ib_iface.c:1059 UCX  ERROR ibv_create_cq(cqe=256) failed: Connection timed out
[1741606125.116475] [ohm:3016085:0]        ib_iface.c:1059 UCX  ERROR ibv_create_cq(cqe=256) failed: Connection timed out
[1741606125.119672] [ohm:3016089:0]        ib_iface.c:1059 UCX  ERROR ibv_create_cq(cqe=256) failed: Connection timed out
[1741606125.143641] [ohm:3016196:0]        ib_iface.c:1059 UCX  ERROR ibv_create_cq(cqe=256) failed: Connection timed out
[1741606125.145808] [ohm:3016086:0]        ib_iface.c:1059 UCX  ERROR ibv_create_cq(cqe=256) failed: Connection timed out
[1741606125.147277] [ohm:3016083:0]        ib_iface.c:1059 UCX  ERROR ibv_create_cq(cqe=256) failed: Connection timed out
[1741606125.149261] [ohm:3016087:0]        ib_iface.c:1059 UCX  ERROR ibv_create_cq(cqe=256) failed: Connection timed out
[1741606125.150615] [ohm:3016084:0]        ib_iface.c:1059 UCX  ERROR ibv_create_cq(cqe=256) failed: Connection timed out
[1741606125.151148] [ohm:3016189:0]        ib_iface.c:1059 UCX  ERROR ibv_create_cq(cqe=256) failed: Connection timed out
[1741606125.151315] [ohm:3016222:0]        ib_iface.c:1059 UCX  ERROR ibv_create_cq(cqe=256) failed: Connection timed out
[1741606125.192646] [ohm:3016108:0]        ib_iface.c:1059 UCX  ERROR ibv_create_cq(cqe=256) failed: Connection timed out
[1741606125.194060] [ohm:3016113:0]        ib_iface.c:1059 UCX  ERROR ibv_create_cq(cqe=256) failed: Connection timed out
[1741606125.213667] [ohm:3016192:0]        ib_iface.c:1059 UCX  ERROR ibv_create_cq(cqe=256) failed: Connection timed out
[1741606125.216653] [ohm:3016105:0]        ib_iface.c:1059 UCX  ERROR ibv_create_cq(cqe=256) failed: Connection timed out
[1741606125.226965] [ohm:3016141:0]        ib_iface.c:1059 UCX  ERROR ibv_create_cq(cqe=256) failed: Connection timed out
[1741606125.231363] [ohm:3016195:0]        ib_iface.c:1059 UCX  ERROR ibv_create_cq(cqe=256) failed: Connection timed out
[1741606125.240205] [ohm:3016145:0]        ib_iface.c:1059 UCX  ERROR ibv_create_cq(cqe=256) failed: Connection timed out
[1741606125.242201] [ohm:3016168:0]        ib_iface.c:1059 UCX  ERROR ibv_create_cq(cqe=256) failed: Connection timed out
[1741606125.252623] [ohm:3016096:0]        ib_iface.c:1059 UCX  ERROR ibv_create_cq(cqe=256) failed: Connection timed out
[1741606125.269391] [ohm:3016199:0]        ib_iface.c:1059 UCX  ERROR ibv_create_cq(cqe=256) failed: Connection timed out
[1741606125.272342] [ohm:3016213:0]        ib_iface.c:1059 UCX  ERROR ibv_create_cq(cqe=256) failed: Connection timed out
[1741606125.272969] [ohm:3016097:0]        ib_iface.c:1059 UCX  ERROR ibv_create_cq(cqe=256) failed: Connection timed out
[1741606125.276166] [ohm:3016160:0]        ib_iface.c:1059 UCX  ERROR ibv_create_cq(cqe=256) failed: Connection timed out
[1741606125.283058] [ohm:3016101:0]        ib_iface.c:1059 UCX  ERROR ibv_create_cq(cqe=256) failed: Connection timed out
[1741606125.287580] [ohm:3016107:0]        ib_iface.c:1059 UCX  ERROR ibv_create_cq(cqe=256) failed: Connection timed out
[1741606125.288218] [ohm:3016129:0]        ib_iface.c:1059 UCX  ERROR ibv_create_cq(cqe=256) failed: Connection timed out
[1741606125.294408] [ohm:3016187:0]        ib_iface.c:1059 UCX  ERROR ibv_create_cq(cqe=256) failed: Connection timed out
[1741606125.294916] [ohm:3016157:0]        ib_iface.c:1059 UCX  ERROR ibv_create_cq(cqe=256) failed: Connection timed out
[1741606125.300430] [ohm:3016173:0]        ib_iface.c:1059 UCX  ERROR ibv_create_cq(cqe=256) failed: Connection timed out
[1741606125.300571] [ohm:3016209:0]        ib_iface.c:1059 UCX  ERROR ibv_create_cq(cqe=256) failed: Connection timed out
[1741606125.317594] [ohm:3016204:0]        ib_iface.c:1059 UCX  ERROR ibv_create_cq(cqe=256) failed: Connection timed out
[1741606125.318892] [ohm:3016100:0]        ib_iface.c:1059 UCX  ERROR ibv_create_cq(cqe=256) failed: Connection timed out
[1741606125.321675] [ohm:3016099:0]        ib_iface.c:1059 UCX  ERROR ibv_create_cq(cqe=256) failed: Connection timed out
[1741606125.324412] [ohm:3016177:0]        ib_iface.c:1059 UCX  ERROR ibv_create_cq(cqe=256) failed: Connection timed out
[1741606125.336217] [ohm:3016095:0]        ib_iface.c:1059 UCX  ERROR ibv_create_cq(cqe=256) failed: Connection timed out
[1741606125.338516] [ohm:3016150:0]        ib_iface.c:1059 UCX  ERROR ibv_create_cq(cqe=256) failed: Connection timed out
[1741606125.339701] [ohm:3016202:0]        ib_iface.c:1059 UCX  ERROR ibv_create_cq(cqe=256) failed: Connection timed out
[1741606125.339982] [ohm:3016094:0]        ib_iface.c:1059 UCX  ERROR ibv_create_cq(cqe=256) failed: Connection timed out
[1741606125.340946] [ohm:3016211:0]        ib_iface.c:1059 UCX  ERROR ibv_create_cq(cqe=256) failed: Connection timed out
[1741606125.342718] [ohm:3016152:0]        ib_iface.c:1059 UCX  ERROR ibv_create_cq(cqe=256) failed: Connection timed out
[1741606125.349061] [ohm:3016154:0]        ib_iface.c:1059 UCX  ERROR ibv_create_cq(cqe=256) failed: Connection timed out
[1741606125.351853] [ohm:3016115:0]        ib_iface.c:1059 UCX  ERROR ibv_create_cq(cqe=256) failed: Connection timed out
[1741606125.352308] [ohm:3016125:0]        ib_iface.c:1059 UCX  ERROR ibv_create_cq(cqe=256) failed: Connection timed out
[1741606125.353844] [ohm:3016161:0]        ib_iface.c:1059 UCX  ERROR ibv_create_cq(cqe=256) failed: Connection timed out
[1741606125.353956] [ohm:3016176:0]        ib_iface.c:1059 UCX  ERROR ibv_create_cq(cqe=256) failed: Connection timed out
[1741606125.356548] [ohm:3016227:0]        ib_iface.c:1059 UCX  ERROR ibv_create_cq(cqe=256) failed: Connection timed out
[1741606125.359482] [ohm:3016103:0]        ib_iface.c:1059 UCX  ERROR ibv_create_cq(cqe=256) failed: Connection timed out
[1741606125.363546] [ohm:3016102:0]        ib_iface.c:1059 UCX  ERROR ibv_create_cq(cqe=256) failed: Connection timed out
[1741606125.364207] [ohm:3016122:0]        ib_iface.c:1059 UCX  ERROR ibv_create_cq(cqe=256) failed: Connection timed out
[1741606125.364733] [ohm:3016181:0]        ib_iface.c:1059 UCX  ERROR ibv_create_cq(cqe=256) failed: Connection timed out
[1741606125.366512] [ohm:3016119:0]        ib_iface.c:1059 UCX  ERROR ibv_create_cq(cqe=256) failed: Connection timed out
[1741606125.367709] [ohm:3016098:0]        ib_iface.c:1059 UCX  ERROR ibv_create_cq(cqe=256) failed: Connection timed out
[1741606125.368719] [ohm:3016183:0]        ib_iface.c:1059 UCX  ERROR ibv_create_cq(cqe=256) failed: Connection timed out
[1741606125.368916] [ohm:3016090:0]        ib_iface.c:1059 UCX  ERROR ibv_create_cq(cqe=256) failed: Connection timed out
[1741606125.369275] [ohm:3016166:0]        ib_iface.c:1059 UCX  ERROR ibv_create_cq(cqe=256) failed: Connection timed out

--------------------------------
SUGGESTED CITATIONS FOR THIS RUN
--------------------------------

Below you find a list of papers that are relevant to this ORCA run
We neither can nor want to force you to cite these papers, but we appreciate if you do
You receive ORCA, which is the product of decades of hard work by many enthusiastic individuals, for free
The only thing we kindly ask in return is that you cite our papers,
We deeply appreciate it, if you show your appreciation for ORCA by not just citing the generic ORCA reference.

Please note that relegating all ORCA citations to the supporting information does *not* help us.
SI sections are not indexed - citations you put there will not count into any citation statistics
But we need these citations in order to attract the funding resources that allow us to do what we are doing

Therefore, if you are a happy ORCA user, please consider citing a few of the papers listed below in the main body of your paper

In addition to the list printed below, the program has created the file orca.bibtex that contains the list in bibtex format
You can import this file easily into all common literature databanks and citation aid programs


List of essential papers. We consider these as the minimum necessary citations

  1. Neese,F.
     Software update: the ORCA program system, version 5.0
     WIRES Comput. Molec. Sci., 2022 12(1)e1606
     doi.org/10.1002/wcms.1606

List of papers to cite with high priority. The work reported in these papers was absolutely
necessary for this run to complete.
Our perspective: the developers of density functionals and basis sets usually get cited in chemistry papers
Good! But without the algorithms to do something with them, the functionals or basis sets would not do anything.
Hence, in our opinion, the algorithm design and method developments papers are equally worthy of getting cited

  1. Neese,F.; Olbrich,G.
     Efficient use of the resolution of the identity approximation in time-dependent density functional calculations with hybrid density functionals
     Chem. Phys. Lett., 2002 362 170-178
     doi.org/10.1016/s0009-2614(02)01053-9
  2. Neese,F.
     An improvement of the resolution of the identity approximation for the formation of the Coulomb matrix
     J. Comp. Chem., 2003 24(14)1740-1747
     doi.org/10.1002/jcc.10318
  3. Neese,F.; Wennmohs,F.; Hansen,A.; Becker,U.
     Efficient, approximate and parallel Hartree-Fock and hybrid DFT calculations. A 'chain-of-spheres' algorithm for the Hartree-Fock exchange
     Chem. Phys., 2009 356(1-3)98-109
     doi.org/10.1016/j.chemphys.2008.10.036
  4. Petrenko,T.; Kossmann,S.; Neese,F.
     Efficient time-dependent density functional theory approximations for hybrid density functionals: Analytical gradients and parallelization
     J. Chem. Phys., 2011 134 054116
     doi.org/10.1063/1.3533441
  5. Helmich-Paris,B.; de Souza,B.; Neese,F.; Izsák,R.
     An improved chain of spheres for exchange algorithm
     J. Chem. Phys., 2021 155 104109
     doi.org/doi: 10.1063/5.0058766.
  6. Neese,F.
     The SHARK Integral Generation and Digestion System
     J. Comp. Chem., 2022  1-16
     doi.org/10.1002/jcc.26942
  7. Lehtola,S.; Steigemann,C.; Oliveira,M.; Marques,M.
     Recent developments in Libxc - A comprehensive library of functionals for density functional theory
     Software X, 2018 7 
     doi.org/10.1016/j.softx.2017.11.002
  8. Grimme,S.; Antony,J.; Ehrlich,S.; Krieg,H.
     A consistent and accurate ab initio parametrization of density functional dispersion correction (DFT-D) for the 94 elements H-Pu
     J. Chem. Phys., 2010 132 154104-XXXX
     doi.org/10.1063/1.3382344
  9. Grimme,S.; Ehrlich,S.; Goerigk,L.
     Effect of the damping function in dispersion corrected density functional theory
     J. Comput. Chem., 2011 32(7)1456-1465
     doi.org/10.1002/jcc.21759

List of suggested additional citations. These are papers that are important in the 'surrounding' of 
of this run, or papers that preceded the highly important papers. If you like your results we are grateful for a citation.

  1. Izsak,R.; Neese,F.
     An overlap fitted chain of spheres exchange method
     J. Chem. Phys., 2011 135 144105
     doi.org/10.1063/1.3646921
  2. Izsak,R.; Hansen,A.; Neese,F.
     The resolution of identity and chain of spheres approximations for the LPNO-CCSD singles Fock term
     Molec. Phys., 2012 110 2413-2417
     doi.org/10.1080/00268976.2012.687466
  3. Neese,F.
     The ORCA program system
     WIRES Comput. Molec. Sci., 2012 2(1)73-78
     doi.org/10.1002/wcms.81
  4. Izsak,R.; Neese,F.; Klopper,W.
     Robust fitting techniques in the chain of spheres approximation to the Fock exchange: The role of the complementary space
     J. Chem. Phys., 2013 139 
     doi.org/10.1063/1.4819264
  5. Neese,F.
     Software update: the ORCA program system, version 4.0
     WIRES Comput. Molec. Sci., 2018 8(1)1-6
     doi.org/10.1002/wcms.1327
  6. Neese,F.; Wennmohs,F.; Becker,U.; Riplinger,C.
     The ORCA quantum chemistry program package
     J. Chem. Phys., 2020 152 Art. No. L224108
     doi.org/10.1063/5.0004608

List of optional additional citations

  1. Neese,F.
     Approximate second-order SCF convergence for spin unrestricted wavefunctions
     Chem. Phys. Lett., 2000 325(1-3)93-98
     doi.org/10.1016/s0009-2614(00)00662-x

Timings for individual modules:

Sum of individual times          ...       25.052 sec (=   0.418 min)
Startup calculation              ...        2.477 sec (=   0.041 min)   9.9 %
SCF iterations                   ...       10.326 sec (=   0.172 min)  41.2 %
Property integrals               ...        2.119 sec (=   0.035 min)   8.5 %
Property calculations            ...        2.057 sec (=   0.034 min)   8.2 %
CIS module                       ...        8.073 sec (=   0.135 min)  32.2 %
                             ****ORCA TERMINATED NORMALLY****
TOTAL RUN TIME: 0 days 0 hours 0 minutes 27 seconds 136 msec
