30
Properties=species:S:1:pos:R:3:momenta:R:3:forces:R:3 Coordinates=T from=T ORCA-job=T orca=T E=T -908.782985587958=T energy=-24728.62875015168 free_energy=-24728.62875015168 stress="-2.2099154555739394e-06 -2.5055184878603168e-06 -2.943092726651226e-06 -2.5055184878603168e-06 -5.963092061502597e-07 1.4336065538066556e-06 -2.943092726651226e-06 1.4336065538066556e-06 -5.100646430974575e-07" pbc="F F F"
O        3.22866886       0.91916831      -0.31787232       0.07971593      -0.00316491      -1.03560913       0.23883699       0.49675411       0.44433394
O       -1.07659084       0.86652727      -2.57608419      -0.36279610      -0.10323994      -0.52989302       0.58054394       0.30701955      -1.09139276
O        0.65971725      -2.65445109      -1.05929293       0.36064335       0.59217501       0.36579125       0.11751423       0.71200019       0.16022755
O       -3.25096975      -1.67458839       0.37392026       0.40952067      -0.67228943       0.88650964       0.46066496       0.34181111      -0.01410170
N        0.19157824      -1.42148529       0.85125944      -0.38826501      -0.04346673      -0.11176990       1.35504232       0.95161517      -0.47908707
N       -2.14126128       0.20611017       1.16797909       0.22886505       1.17061128      -0.76254911       0.40320504      -0.95810967      -1.79680536
N        1.88664171      -0.80065621      -0.66270542       0.58211327      -0.01909957      -0.68332378       0.01802548       0.38051973       0.07519127
N       -1.81327015      -0.48863594      -1.00502122       0.10400469      -0.10029362      -0.04276714      -1.71320771      -3.30095985       0.27497781
C        1.58378198       0.49505968       1.34736552      -0.24222061       0.41820784       1.10541261       0.08125856      -0.79379530      -0.34900033
C       -0.56386308       1.40625560      -0.32386861       0.14950013      -0.46925695       0.36526010      -0.47231513      -0.72639276      -0.63152192
C        0.27404971      -0.12608580       1.52647270       0.64992949      -0.16765468       0.47585715      -0.45085653       0.31302518      -0.08666370
C       -0.90995892       0.94660404       1.02464311      -0.54506776      -0.10108433      -0.35871610       0.50717250      -0.94474661       0.43766863
C        2.15639144       1.41787867       2.32274794      -0.44151886       0.52364062      -0.24359086      -0.07727458       0.25849603       0.21053755
C        0.27114857       2.60875587      -0.55687354      -0.96175890      -0.09694814       0.04087281      -0.95549743      -0.79507928      -0.86884342
C        2.30363052       0.25298787       0.11926273       0.25297312      -0.28776236      -0.08970120       0.23832853       0.24273295      -0.26171597
C       -1.13485917       0.59638818      -1.40658226       0.45008160      -1.14853258       0.17185956       0.35855719       1.57129027       0.51274295
C        0.91441609      -1.66865879      -0.38625257       0.20208411      -0.35079704      -0.49929467      -2.59719816      -1.61850814       1.89268328
C       -2.45772528      -0.76888525       0.23237379      -0.37445631       0.39648460       0.71362633      -0.16990528       1.24924893      -0.60311441
H        0.01850302      -0.19659104       2.58963763       0.07039372      -0.18531767      -0.10767366       0.18751330      -0.32390434      -0.11447268
H       -1.01441849       1.79889693       1.66783648      -0.14264071      -0.03977219       0.01677354       0.56239419       0.20597957       0.55033493
H        3.03571814       0.91307082       2.74791858      -0.29983575       0.04423659       0.16002840       0.15708020       0.56041099      -0.09301077
H        2.41477864       2.31349718       1.73547679       0.06961576       0.15791981       0.14738134       0.37280752      -0.06974436       0.75853589
H        1.47596609       1.64367513       3.16112793      -0.04454294       0.07159182      -0.06985939       0.14795642       0.03253376      -0.48090734
H        0.60191951       2.64274500      -1.58783760       0.20610838      -0.18918760       0.27294858      -0.40479341       0.18039236      -0.29068632
H       -0.39595830       3.41942593      -0.29512320      -0.02064047       0.03295120      -0.00759829       0.34356730       0.68593296      -0.02915504
H        1.17523451       2.61038594      -0.02305449       0.05067442      -0.07086291      -0.25410038       0.63120045       0.27877642       0.96149222
H       -0.72654776      -1.81309261       0.94062673       0.01262672       0.07113715      -0.12859734       0.17305751      -0.57498765      -0.27494192
H       -2.80637819       0.43363638       1.83581132      -0.05445142       0.08000653      -0.09345214      -0.74874928       0.20657144       0.94966736
H        2.23041764      -0.86068582      -1.58812744      -0.16568665       0.06820714       0.21734467       0.49391373       0.00358580      -0.50591080
H       -1.97939707      -1.25401799      -1.71305422       0.16503109       0.42156106       0.07883015       0.16115717       1.12753144       0.74293813
