30
Properties=species:S:1:pos:R:3:momenta:R:3:forces:R:3 Coordinates=T from=T ORCA-job=T orca=T E=T -908.729216409580=T energy=-24726.29037439835 free_energy=-24726.29037439835 stress="4.6438169060631844e-07 1.0310139073542579e-06 -5.665024466940091e-07 1.0310139073542579e-06 1.851553930584375e-06 -1.0302128568690661e-06 -5.665024466940091e-07 -1.0302128568690661e-06 1.9783958528621717e-06" pbc="F F F"
O        2.38185211      -0.32672599      -1.11138702      -0.31232683       0.14165766       0.73473515      -0.15592009      -0.06516707       0.07596606
O       -0.13295727       2.77970597      -2.44299434       0.61652066      -1.00931697      -1.07550748       0.44296255      -0.55619860       1.17928634
O        0.21586368      -3.82786185       0.82951573      -0.20455602      -0.67595629      -0.18046475      -0.11006318       0.13580221      -0.04097682
O       -2.07826174      -1.05678604      -1.44207922       0.24137532       0.56175891       0.67879718       0.06773478       0.22350782       0.04818766
N        0.39467061      -1.94325706       2.05966036      -0.18983938      -0.95135314       0.46280835      -0.18322899      -0.30051133       0.60636732
N       -1.28610306      -0.19350436       0.51692650       0.39076749       0.01637111       0.24502882       0.19797477      -0.55298456       0.65522877
N        1.08164952      -1.98864611      -0.20134886      -0.02366931       0.24012898       0.16324893       0.05535141       0.32052605       0.12332864
N       -0.74348582       0.78625321      -1.52853039      -0.16812135       0.28649532       0.16900612       0.35479810       0.21279199      -0.84318604
C        1.21797238       0.22001620       0.89922656       0.35070997       0.44719502      -0.75739780       0.63861064      -1.63158805       0.87845236
C       -0.56380697       2.71728219      -0.07641061      -0.57039491      -0.06838035      -0.56740262      -0.75729372       0.38218572      -0.23410726
C        0.63275691      -0.55890992       2.18787865       0.80381882      -0.11757400       0.16184107      -0.23800748       0.48590413      -2.98897940
C       -0.18025752       0.37723563       1.22738732      -0.44252880       0.44538776      -0.22653468      -1.42845279      -0.29994032       1.95230118
C        2.21564962       1.27479829       1.21604315      -0.92076677      -0.17646450      -0.18124139       0.59960799       0.57253353      -0.01953762
C       -1.69904571       3.54015892       0.42596425      -0.69525213       0.09837360       1.33115581       0.88553231      -0.57027130      -1.04784113
C        1.62573027      -0.67276726      -0.23602081      -0.22830745       0.05565803      -0.71804766      -0.39889180      -0.99523994       0.00555828
C       -0.31913136       2.14057873      -1.41064096      -0.43465692      -0.13243318      -0.82544117      -1.67125823       0.19783477       0.27157980
C        0.51127240      -2.65729018       0.91149656       0.24609383      -0.17809961      -0.27442326       0.57429909      -0.12212759      -0.84706701
C       -1.43248710      -0.22591309      -0.84902197       0.71636031       0.35731448       0.02314207       0.42882576       0.46719656       0.65850094
H        0.96061247      -0.18386423       3.11909948      -0.07001574       0.00601692       0.11207755       0.06475058       0.23998400       0.56455379
H       -0.38819158       1.25138186       1.81274766      -0.02232431      -0.12852640       0.15436206      -0.25289680       0.55347268      -0.40029749
H        2.49299875       1.83903535       0.31951950       0.14279585       0.03321411       0.07548861      -0.06173407      -0.09596760       0.15586386
H        1.91742028       1.98887110       1.99278327       0.06842747      -0.03695248       0.00916737      -0.23302460      -0.31307584      -0.19186800
H        3.09575637       0.74811775       1.57317345      -0.03864653      -0.07908517       0.14464327       0.27923530       0.19486674      -0.02923046
H       -2.65234742       2.97131489       0.41964256      -0.20973077       0.30412488       0.18351092       0.39258189       0.06679034      -0.02163183
H       -1.55637787       3.95455181       1.41102541       0.16473423       0.20676755      -0.03576731       0.19809493       0.02445444       0.20951881
H       -1.78355827       4.35712886      -0.30403679       0.26638439       0.03572319       0.15723937      -0.30383918       0.09263463       0.24998158
H       -0.08402827      -2.48941972       2.78419014       0.19157335       0.00412410      -0.07430957       0.32669095       0.46753181      -0.26072745
H       -1.73189273      -0.99085655       0.99474888       0.20116425       0.21921378       0.17503033       0.19610171       0.57975819      -0.49066850
H        1.20013716      -2.61294865      -1.01368136       0.01032572       0.04767715      -0.02401363       0.06749201       0.56840359       0.52911232
H       -0.83865727       0.62212671      -2.49970200       0.12008560       0.04693953      -0.04073164       0.02396615      -0.28310702      -0.74766871
