
                                 *****************
                                 * O   R   C   A *
                                 *****************

                                            #,                                       
                                            ###                                      
                                            ####                                     
                                            #####                                    
                                            ######                                   
                                           ########,                                 
                                     ,,################,,,,,                         
                               ,,#################################,,                 
                          ,,##########################################,,             
                       ,#########################################, ''#####,          
                    ,#############################################,,   '####,        
                  ,##################################################,,,,####,       
                ,###########''''           ''''###############################       
              ,#####''   ,,,,##########,,,,          '''####'''          '####       
            ,##' ,,,,###########################,,,                        '##       
           ' ,,###''''                  '''############,,,                           
         ,,##''                                '''############,,,,        ,,,,,,###''
      ,#''                                            '''#######################'''  
     '                                                          ''''####''''         
             ,#######,   #######,   ,#######,      ##                                
            ,#'     '#,  ##    ##  ,#'     '#,    #''#        ,####,   ,####,        
            ##       ##  ##   ,#'  ##            #'  '#       #'       #'  '#        
            ##       ##  #######   ##           ,######,      #####,   #    #        
            '#,     ,#'  ##    ##  '#,     ,#' ,#      #,     #,   #   #,  ,#        
             '#######'   ##     ##  '#######'  #'      '#     '####' # '####'        



                #########################################################
                #                        -***-                          #
                #          Department of theory and spectroscopy        #
                #                                                       #
                #                      Frank Neese                      #
                #                                                       #
                #     Directorship, Architecture, Infrastructure        #
                #                    SHARK, DRIVERS                     #
                #        Core code/Algorithms in most modules           #
                #                                                       #
                #        Max Planck Institute fuer Kohlenforschung      #
                #                Kaiser Wilhelm Platz 1                 #
                #                 D-45470 Muelheim/Ruhr                 #
                #                      Germany                          #
                #                                                       #
                #                  All rights reserved                  #
                #                        -***-                          #
                #########################################################


                         Program Version 6.0.0  -   RELEASE  -


 With contributions from (in alphabetic order):
   Daniel Aravena         : Magnetic Suceptibility
   Michael Atanasov       : Ab Initio Ligand Field Theory (pilot matlab implementation)
   Alexander A. Auer      : GIAO ZORA, VPT2 properties, NMR spectrum
   Ute Becker             : All parallelization in ORCA, NUMFREQ, NUMCALC
   Giovanni Bistoni       : ED, misc. LED, open-shell LED, HFLD
   Martin Brehm           : Molecular dynamics
   Dmytro Bykov           : pre 5.0 version of the SCF Hessian
   Marcos Casanova-Páez   : Triplet and SCS-CIS(D). UHF-(DLPNO)-IP/EA/STEOM-CCSD. UHF-CVS-IP/STEOM-CCSD
   Vijay G. Chilkuri      : MRCI spin determinant printing, contributions to CSF-ICE
   Pauline Colinet        : FMM embedding
   Dipayan Datta          : RHF DLPNO-CCSD density
   Achintya Kumar Dutta   : EOM-CC, STEOM-CC
   Nicolas Foglia         : Exact transition moments, OPA infrastructure, MCD improvements
   Dmitry Ganyushin       : Spin-Orbit,Spin-Spin,Magnetic field MRCI
   Miquel Garcia          : C-PCM and meta-GGA Hessian, CCSD/C-PCM, Gaussian charge scheme
   Tiago L. C. Gouveia    : GS-ROHF, GS-ROCIS
   Yang Guo               : DLPNO-NEVPT2, F12-NEVPT2, CIM, IAO-localization
   Andreas Hansen         : Spin unrestricted coupled pair/coupled cluster methods
   Ingolf Harden          : AUTO-CI MPn and infrastructure 
   Benjamin Helmich-Paris : MC-RPA, TRAH-(SCF,CASSCF), AVAS, COSX integrals, SCF dyn. polar.
   Lee Huntington         : MR-EOM, pCC
   Robert Izsak           : Overlap fitted RIJCOSX, COSX-SCS-MP3, EOM
   Riya Kayal             : Wick's Theorem for AUTO-CI, AUTO-CI UHF-CCSDT
   Emily Kempfer          : AUTO-CI, RHF CISDT and CCSDT
   Christian Kollmar      : KDIIS, OOCD, Brueckner-CCSD(T), CCSD density, CASPT2, CASPT2-K, improved NEVPT2
   Axel Koslowski         : Symmetry handling
   Simone Kossmann        : Meta GGA functionals, TD-DFT gradient, OOMP2, (MP2 Hessian; deprecated post 5.0)
   Lucas Lang             : DCDCAS
   Marvin Lechner         : AUTO-CI (C++ implementation), FIC-MRCC
   Spencer Leger          : CASSCF response
   Dagmar Lenk            : GEPOL surface, SMD, ORCA-2-JSON
   Dimitrios Liakos       : Extrapolation schemes; Compound Job, initial MDCI parallelization
   Dimitrios Manganas     : Further ROCIS development; embedding schemes. LFT, Crystal Embedding
   Dimitrios Pantazis     : SARC Basis sets
   Anastasios Papadopoulos: AUTO-CI, single reference methods and gradients
   Taras Petrenko         : pre 6.0 DFT Hessian and TD-DFT gradient, (ASA, deprecated), ECA, 1-Electron XAS/XES, NRVS
   Peter Pinski           : DLPNO-MP2, DLPNO-MP2 Gradient
   Christoph Reimann      : Effective Core Potentials
   Marius Retegan         : Local ZFS, SOC
   Christoph Riplinger    : Optimizer, TS searches, QM/MM, DLPNO-CCSD(T), (RO)-DLPNO pert. Triples
   Michael Roemelt        : Original ROCIS implementation
   Masaaki Saitow         : Open-shell DLPNO-CCSD energy and density
   Barbara Sandhoefer     : DKH picture change effects
   Kantharuban Sivalingam : CASSCF convergence/infrastructure, NEVPT2 and variants, FIC-MRCI
   Bernardo de Souza      : ESD, SOC TD-DFT
   Georgi Stoychev        : AutoAux, RI-MP2 NMR, DLPNO-MP2 response, X2C
   Van Anh Tran           : RI-MP2 g-tensors
   Willem Van den Heuvel  : Paramagnetic NMR
   Zikuan Wang            : NOTCH, Electric field optimization 
   Frank Wennmohs         : Technical directorship and infrastructure
   Hang Xu                : AUTO-CI-Response properties 


 We gratefully acknowledge several colleagues who have allowed us to
 interface, adapt or use parts of their codes:
   Stefan Grimme, W. Hujo, H. Kruse, P. Pracht,  : VdW corrections, initial TS optimization,
                  C. Bannwarth, S. Ehlert,         DFT functionals, gCP, sTDA/sTD-DF
                  L. Wittmann, M. Mueller
   Ed Valeev, F. Pavosevic, A. Kumar             : LibInt (2-el integral package), F12 methods
   Garnet Chan, S. Sharma, J. Yang, R. Olivares  : DMRG
   Ulf Ekstrom                                   : XCFun DFT Library
   Mihaly Kallay                                 : mrcc  (arbitrary order and MRCC methods)
   Frank Weinhold                                : gennbo (NPA and NBO analysis)
   Simon Mueller                                 : openCOSMO-RS
   Christopher J. Cramer and Donald G. Truhlar   : smd solvation model
   Lars Goerigk                                  : TD-DFT with DH, B97 family of functionals
   V. Asgeirsson, H. Jonsson                     : NEB implementation
   FAccTs GmbH                                   : IRC, NEB, NEB-TS, DLPNO-Multilevel, CI-OPT
                                                   MM, QMMM, 2- and 3-layer-ONIOM, Crystal-QMMM,
                                                   LR-CPCM, SF, NACMEs, symmetry and pop. for TD-DFT,
                                                   nearIR, NL-DFT gradient (VV10), updates on ESD,
                                                   ML-optimized integration grids, MBIS, APM,
                                                   GOAT, DOCKER, SOLVATOR, interface openCOSMO-RS
   S Lehtola, MJT Oliveira, MAL Marques          : LibXC Library
   Liviu Ungur et al                             : ANISO software


 Your calculation uses the libint2 library for the computation of 2-el integrals
 For citations please refer to: http://libint.valeyev.net

 Your ORCA version has been built with support for libXC version: 6.2.2
 For citations please refer to: https://libxc.gitlab.io

 This ORCA versions uses:
   CBLAS   interface :  Fast vector & matrix operations
   LAPACKE interface :  Fast linear algebra routines
   SCALAPACK package :  Parallel linear algebra routines
   Shared memory     :  Shared parallel matrices
   BLAS/LAPACK       :  OpenBLAS 0.3.27  USE64BITINT DYNAMIC_ARCH NO_AFFINITY Zen SINGLE_THREADED
        Core in use  :  Zen
   Copyright (c) 2011-2014, The OpenBLAS Project


Your calculation utilizes the atom-pairwise dispersion correction
with the Becke-Johnson damping scheme (D3BJ)


Warning: RI is on but no J-basis has been assigned. Assigning Def2/J (nothing to worry about!)
================================================================================

----- Orbital basis set information -----
Your calculation utilizes the basis: def2-TZVPPD
   F. Weigend and R. Ahlrichs, Phys. Chem. Chem. Phys. 7, 3297 (2005).
   D. Rappoport and F. Furche, J. Chem. Phys. 133, 134105 (2010)
   D. Rappoport, J. Chem. Phys. 155, 124102 (2021).

----- AuxJ basis set information -----
Your calculation utilizes the auxiliary basis: def2/J
   F. Weigend, Phys. Chem. Chem. Phys. 8, 1057 (2006).

================================================================================
                                        WARNINGS
                       Please study these warnings very carefully!
================================================================================

Using LibXC functional ID 531 : wB97M-V exchange-correlation functional
[ 1]  N. Mardirossian and M. Head-Gordon.,  J. Chem. Phys. 144, 214110 (2016)
Using LibXC functional ID 531 : wB97M-V exchange-correlation functional
[ 1]  N. Mardirossian and M. Head-Gordon.,  J. Chem. Phys. 144, 214110 (2016)

WARNING: B97M-V or wB97M-V functional requested.
  ===> : libXC variant has now been activated.
         Any manually given DFX/HFX/RangeSep scaling parameters are IGNORED!

Your calculation utilizes LibXC
 by S Lehtola, C Steigemann, MJT Oliveira & MAL Marques
Please cite in your paper:
 S Lehtola, C Steigemann, MJT Oliveira & MAL Marques, SoftwareX, 7, (2018), 1.
   


WARNING: your system is open-shell and RHF/RKS was chosen
  ===> : WILL SWITCH to UHF/UKS

INFO   : Checking CIS options ...

WARNING: CIS/ROCIS methods need fully converged wavefunctions
  ===> : Setting SCFConvForced true
         You can overwrite this default with %scf ConvForced false 


================================================================================
                                       INPUT FILE
================================================================================
NAME = orca.inp
|  1> ! Engrad def2-TZVPPD wB97M-D3BJ 
|  2> %pal nprocs 8 end%pal nprocs 64 end 
|  3> %tddft 
|  4>  Iroot 2 Nroots 3 
|  5> sf true 
|  6> end 
|  7> *xyz 0 3 
|  8> O   -0.70479522 0.35341235 -0.07307369
|  9> C   0.61563568 0.50582781 0.1989039
| 10> C   1.41821994 -0.742665 0.1046593
| 11> H   0.65226753 0.94044749 1.27413343
| 12> H   1.04054608 1.28674699 -0.42660654
| 13> H   1.13359725 -1.70726786 0.47702486
| 14> H   2.26850722 -0.54749661 -0.56199012
| 15> *
| 16> 
| 17>                          ****END OF INPUT****
================================================================================

                     *******************************
                     * Energy+Gradient Calculation *
                     *******************************

---------------------------------
CARTESIAN COORDINATES (ANGSTROEM)
---------------------------------
  O     -0.704795    0.353412   -0.073074
  C      0.615636    0.505828    0.198904
  C      1.418220   -0.742665    0.104659
  H      0.652268    0.940447    1.274133
  H      1.040546    1.286747   -0.426607
  H      1.133597   -1.707268    0.477025
  H      2.268507   -0.547497   -0.561990

----------------------------
CARTESIAN COORDINATES (A.U.)
----------------------------
  NO LB      ZA    FRAG     MASS         X           Y           Z
   0 O     8.0000    0    15.999   -1.331870    0.667853   -0.138089
   1 C     6.0000    0    12.011    1.163383    0.955876    0.375874
   2 C     6.0000    0    12.011    2.680047   -1.403433    0.197777
   3 H     1.0000    0     1.008    1.232607    1.777188    2.407763
   4 H     1.0000    0     1.008    1.966347    2.431599   -0.806170
   5 H     1.0000    0     1.008    2.142188   -3.226269    0.901446
   6 H     1.0000    0     1.008    4.286857   -1.034619   -1.062007

--------------------------------
INTERNAL COORDINATES (ANGSTROEM)
--------------------------------
 O      0   0   0     0.000000000000     0.00000000     0.00000000
 C      1   0   0     1.356738752887     0.00000000     0.00000000
 C      2   1   0     1.487197981323   114.72151463     0.00000000
 H      2   1   3     1.160325256496   104.98503832   238.05514822
 H      2   1   3     1.087035843139   110.22940193   125.94184478
 H      3   2   1     1.072438745783   126.14653730   316.99604337
 H      3   2   1     1.097952917101   107.88947394   127.27124724

---------------------------
INTERNAL COORDINATES (A.U.)
---------------------------
 O      0   0   0     0.000000000000     0.00000000     0.00000000
 C      1   0   0     2.563864678233     0.00000000     0.00000000
 C      2   1   0     2.810396891621   114.72151463     0.00000000
 H      2   1   3     2.192696961049   104.98503832   238.05514822
 H      2   1   3     2.054200041289   110.22940193   125.94184478
 H      3   2   1     2.026615524936   126.14653730   316.99604337
 H      3   2   1     2.074830321261   107.88947394   127.27124724

---------------------
BASIS SET INFORMATION
---------------------
There are 3 groups of distinct atoms

 Group   1 Type O   : 12s7p3d1f contracted to 6s4p3d1f pattern {621111/4111/111/1}
 Group   2 Type C   : 12s6p3d1f contracted to 6s3p3d1f pattern {621111/411/111/1}
 Group   3 Type H   : 5s3p1d contracted to 3s3p1d pattern {311/111/1}

Atom   0O    basis set group =>   1
Atom   1C    basis set group =>   2
Atom   2C    basis set group =>   2
Atom   3H    basis set group =>   3
Atom   4H    basis set group =>   3
Atom   5H    basis set group =>   3
Atom   6H    basis set group =>   3
---------------------------------
AUXILIARY/J BASIS SET INFORMATION
---------------------------------
There are 3 groups of distinct atoms

 Group   1 Type O   : 12s5p4d2f1g contracted to 6s4p3d1f1g pattern {711111/2111/211/2/1}
 Group   2 Type C   : 12s5p4d2f1g contracted to 6s4p3d1f1g pattern {711111/2111/211/2/1}
 Group   3 Type H   : 5s2p1d contracted to 3s1p1d pattern {311/2/1}

Atom   0O    basis set group =>   1
Atom   1C    basis set group =>   2
Atom   2C    basis set group =>   2
Atom   3H    basis set group =>   3
Atom   4H    basis set group =>   3
Atom   5H    basis set group =>   3
Atom   6H    basis set group =>   3
[1741608981.608436] [ohm:3278315:0]        ib_iface.c:1059 UCX  ERROR ibv_create_cq(cqe=256) failed: Connection timed out
[1741608981.618414] [ohm:3278314:0]        ib_iface.c:1059 UCX  ERROR ibv_create_cq(cqe=256) failed: Connection timed out
[1741608981.623426] [ohm:3278327:0]        ib_iface.c:1059 UCX  ERROR ibv_create_cq(cqe=256) failed: Connection timed out
[1741608981.623901] [ohm:3278369:0]        ib_iface.c:1059 UCX  ERROR ibv_create_cq(cqe=256) failed: Connection timed out
[1741608981.633761] [ohm:3278313:0]        ib_iface.c:1059 UCX  ERROR ibv_create_cq(cqe=256) failed: Connection timed out
[1741608981.637959] [ohm:3278317:0]        ib_iface.c:1059 UCX  ERROR ibv_create_cq(cqe=256) failed: Connection timed out
[1741608981.652604] [ohm:3278348:0]        ib_iface.c:1059 UCX  ERROR ibv_create_cq(cqe=256) failed: Connection timed out
[1741608981.653079] [ohm:3278316:0]        ib_iface.c:1059 UCX  ERROR ibv_create_cq(cqe=256) failed: Connection timed out
[1741608981.657848] [ohm:3278312:0]        ib_iface.c:1059 UCX  ERROR ibv_create_cq(cqe=256) failed: Connection timed out
[1741608981.658307] [ohm:3278371:0]        ib_iface.c:1059 UCX  ERROR ibv_create_cq(cqe=256) failed: Connection timed out
[1741608981.658357] [ohm:3278353:0]        ib_iface.c:1059 UCX  ERROR ibv_create_cq(cqe=256) failed: Connection timed out
[1741608981.659033] [ohm:3278374:0]        ib_iface.c:1059 UCX  ERROR ibv_create_cq(cqe=256) failed: Connection timed out
[1741608981.659966] [ohm:3278367:0]        ib_iface.c:1059 UCX  ERROR ibv_create_cq(cqe=256) failed: Connection timed out
[1741608981.686003] [ohm:3278439:0]        ib_iface.c:1059 UCX  ERROR ibv_create_cq(cqe=256) failed: Connection timed out
[1741608981.688836] [ohm:3278318:0]        ib_iface.c:1059 UCX  ERROR ibv_create_cq(cqe=256) failed: Connection timed out
[1741608981.722942] [ohm:3278323:0]        ib_iface.c:1059 UCX  ERROR ibv_create_cq(cqe=256) failed: Connection timed out
[1741608981.724795] [ohm:3278322:0]        ib_iface.c:1059 UCX  ERROR ibv_create_cq(cqe=256) failed: Connection timed out
[1741608981.727887] [ohm:3278431:0]        ib_iface.c:1059 UCX  ERROR ibv_create_cq(cqe=256) failed: Connection timed out
[1741608981.729245] [ohm:3278429:0]        ib_iface.c:1059 UCX  ERROR ibv_create_cq(cqe=256) failed: Connection timed out
[1741608981.749573] [ohm:3278324:0]        ib_iface.c:1059 UCX  ERROR ibv_create_cq(cqe=256) failed: Connection timed out
[1741608981.756652] [ohm:3278321:0]        ib_iface.c:1059 UCX  ERROR ibv_create_cq(cqe=256) failed: Connection timed out
[1741608981.761769] [ohm:3278445:0]        ib_iface.c:1059 UCX  ERROR ibv_create_cq(cqe=256) failed: Connection timed out
[1741608981.769565] [ohm:3278325:0]        ib_iface.c:1059 UCX  ERROR ibv_create_cq(cqe=256) failed: Connection timed out
[1741608981.786327] [ohm:3278447:0]        ib_iface.c:1059 UCX  ERROR ibv_create_cq(cqe=256) failed: Connection timed out
[1741608981.790792] [ohm:3278423:0]        ib_iface.c:1059 UCX  ERROR ibv_create_cq(cqe=256) failed: Connection timed out
[1741608981.796183] [ohm:3278365:0]        ib_iface.c:1059 UCX  ERROR ibv_create_cq(cqe=256) failed: Connection timed out
[1741608981.801709] [ohm:3278417:0]        ib_iface.c:1059 UCX  ERROR ibv_create_cq(cqe=256) failed: Connection timed out
[1741608981.803110] [ohm:3278405:0]        ib_iface.c:1059 UCX  ERROR ibv_create_cq(cqe=256) failed: Connection timed out
[1741608981.819947] [ohm:3278402:0]        ib_iface.c:1059 UCX  ERROR ibv_create_cq(cqe=256) failed: Connection timed out
[1741608981.820116] [ohm:3278320:0]        ib_iface.c:1059 UCX  ERROR ibv_create_cq(cqe=256) failed: Connection timed out
[1741608981.821143] [ohm:3278373:0]        ib_iface.c:1059 UCX  ERROR ibv_create_cq(cqe=256) failed: Connection timed out
[1741608981.822021] [ohm:3278415:0]        ib_iface.c:1059 UCX  ERROR ibv_create_cq(cqe=256) failed: Connection timed out
[1741608981.840040] [ohm:3278375:0]        ib_iface.c:1059 UCX  ERROR ibv_create_cq(cqe=256) failed: Connection timed out
[1741608981.840509] [ohm:3278452:0]        ib_iface.c:1059 UCX  ERROR ibv_create_cq(cqe=256) failed: Connection timed out
[1741608981.842038] [ohm:3278387:0]        ib_iface.c:1059 UCX  ERROR ibv_create_cq(cqe=256) failed: Connection timed out
[1741608981.843239] [ohm:3278458:0]        ib_iface.c:1059 UCX  ERROR ibv_create_cq(cqe=256) failed: Connection timed out
[1741608981.847361] [ohm:3278382:0]        ib_iface.c:1059 UCX  ERROR ibv_create_cq(cqe=256) failed: Connection timed out
[1741608981.849261] [ohm:3278392:0]        ib_iface.c:1059 UCX  ERROR ibv_create_cq(cqe=256) failed: Connection timed out
[1741608981.857453] [ohm:3278360:0]        ib_iface.c:1059 UCX  ERROR ibv_create_cq(cqe=256) failed: Connection timed out
[1741608981.859349] [ohm:3278377:0]        ib_iface.c:1059 UCX  ERROR ibv_create_cq(cqe=256) failed: Connection timed out
[1741608981.861569] [ohm:3278364:0]        ib_iface.c:1059 UCX  ERROR ibv_create_cq(cqe=256) failed: Connection timed out
[1741608981.862539] [ohm:3278463:0]        ib_iface.c:1059 UCX  ERROR ibv_create_cq(cqe=256) failed: Connection timed out
[1741608981.862778] [ohm:3278319:0]        ib_iface.c:1059 UCX  ERROR ibv_create_cq(cqe=256) failed: Connection timed out
[1741608981.873308] [ohm:3278422:0]        ib_iface.c:1059 UCX  ERROR ibv_create_cq(cqe=256) failed: Connection timed out
[1741608981.878068] [ohm:3278378:0]        ib_iface.c:1059 UCX  ERROR ibv_create_cq(cqe=256) failed: Connection timed out
[1741608981.879107] [ohm:3278432:0]        ib_iface.c:1059 UCX  ERROR ibv_create_cq(cqe=256) failed: Connection timed out
[1741608981.886865] [ohm:3278379:0]        ib_iface.c:1059 UCX  ERROR ibv_create_cq(cqe=256) failed: Connection timed out
[1741608981.894315] [ohm:3278346:0]        ib_iface.c:1059 UCX  ERROR ibv_create_cq(cqe=256) failed: Connection timed out
[1741608981.896629] [ohm:3278368:0]        ib_iface.c:1059 UCX  ERROR ibv_create_cq(cqe=256) failed: Connection timed out
[1741608981.902131] [ohm:3278409:0]        ib_iface.c:1059 UCX  ERROR ibv_create_cq(cqe=256) failed: Connection timed out
[1741608981.906340] [ohm:3278386:0]        ib_iface.c:1059 UCX  ERROR ibv_create_cq(cqe=256) failed: Connection timed out
[1741608981.910378] [ohm:3278383:0]        ib_iface.c:1059 UCX  ERROR ibv_create_cq(cqe=256) failed: Connection timed out
[1741608981.910607] [ohm:3278372:0]        ib_iface.c:1059 UCX  ERROR ibv_create_cq(cqe=256) failed: Connection timed out
[1741608981.911203] [ohm:3278437:0]        ib_iface.c:1059 UCX  ERROR ibv_create_cq(cqe=256) failed: Connection timed out
[1741608981.911584] [ohm:3278398:0]        ib_iface.c:1059 UCX  ERROR ibv_create_cq(cqe=256) failed: Connection timed out
[1741608981.914336] [ohm:3278410:0]        ib_iface.c:1059 UCX  ERROR ibv_create_cq(cqe=256) failed: Connection timed out
[1741608981.916024] [ohm:3278370:0]        ib_iface.c:1059 UCX  ERROR ibv_create_cq(cqe=256) failed: Connection timed out
[1741608981.917222] [ohm:3278376:0]        ib_iface.c:1059 UCX  ERROR ibv_create_cq(cqe=256) failed: Connection timed out
[1741608981.917214] [ohm:3278381:0]        ib_iface.c:1059 UCX  ERROR ibv_create_cq(cqe=256) failed: Connection timed out
[1741608981.920518] [ohm:3278326:0]        ib_iface.c:1059 UCX  ERROR ibv_create_cq(cqe=256) failed: Connection timed out
[1741608981.921076] [ohm:3278393:0]        ib_iface.c:1059 UCX  ERROR ibv_create_cq(cqe=256) failed: Connection timed out
[1741608981.921802] [ohm:3278399:0]        ib_iface.c:1059 UCX  ERROR ibv_create_cq(cqe=256) failed: Connection timed out
[1741608981.921904] [ohm:3278357:0]        ib_iface.c:1059 UCX  ERROR ibv_create_cq(cqe=256) failed: Connection timed out
[1741608981.922234] [ohm:3278380:0]        ib_iface.c:1059 UCX  ERROR ibv_create_cq(cqe=256) failed: Connection timed out


           ************************************************************
           *        Program running with 64 parallel MPI-processes    *
           *              working on a common directory               *
           ************************************************************
------------------------------------------------------------------------------
                             ORCA STARTUP CALCULATIONS
                           -- RI-GTO INTEGRALS CHOSEN --
------------------------------------------------------------------------------
------------------------------------------------------------------------------
                   ___                                                        
                  /   \      - P O W E R E D   B Y -                         
                 /     \                                                     
                 |  |  |   _    _      __       _____    __    __             
                 |  |  |  | |  | |    /  \     |  _  \  |  |  /  |          
                  \  \/   | |  | |   /    \    | | | |  |  | /  /          
                 / \  \   | |__| |  /  /\  \   | |_| |  |  |/  /          
                |  |  |   |  __  | /  /__\  \  |    /   |      \           
                |  |  |   | |  | | |   __   |  |    \   |  |\   \          
                \     /   | |  | | |  |  |  |  | |\  \  |  | \   \       
                 \___/    |_|  |_| |__|  |__|  |_| \__\ |__|  \__/        
                                                                              
                      - O R C A' S   B I G   F R I E N D -                    
                                      &                                       
                       - I N T E G R A L  F E E D E R -                       
                                                                              
 v1 FN, 2020, v2 2021, v3 2022-2024                                           
------------------------------------------------------------------------------


----------------------
SHARK INTEGRAL PACKAGE
----------------------

Number of atoms                             ...      7
Number of basis functions                   ...    182
Number of shells                            ...     68
Maximum angular momentum                    ...      3
Integral batch strategy                     ... SHARK/LIBINT Hybrid
RI-J (if used) integral strategy            ... SPLIT-RIJ (Revised 2003 algorithm where possible)
Printlevel                                  ...      1
Contraction scheme used                     ... SEGMENTED contraction
Prescreening option                         ... SCHWARTZ
   Thresh                                   ... 2.500e-11
   Tcut                                     ... 2.500e-12
   Tpresel                                  ... 2.500e-12 
Coulomb Range Separation                    ... NOT USED
Exchange Range Separation                   ... Long Range
   Mu parameter                             ... 3.000e-01
   Scaling (regular/separated)              ... 1.500e-01 8.500e-01
Multipole approximations                    ... NOT USED
Finite Nucleus Model                        ... NOT USED
CABS basis                                  ... NOT available
Auxiliary Coulomb fitting basis             ... AVAILABLE
   # of basis functions in Aux-J            ...    191
   # of shells in Aux-J                     ...     65
   Maximum angular momentum in Aux-J        ...      4
Auxiliary J/K fitting basis                 ... NOT available
Auxiliary Correlation fitting basis         ... NOT available
Auxiliary 'external' fitting basis          ... NOT available

Checking pre-screening integrals            ... done (  0.0 sec) Dimension = 68
Check shell pair data                       ... done (  0.0 sec)
Shell pair information
Shell pair cut-off parameter TPreSel        ...   2.5e-12
Total number of shell pairs                 ...      2346
Shell pairs after pre-screening             ...      2328
Total number of primitive shell pairs       ...      5434
Primitive shell pairs kept                  ...      4817
          la=0 lb=0:    455 shell pairs
          la=1 lb=0:    655 shell pairs
          la=1 lb=1:    253 shell pairs
          la=2 lb=0:    387 shell pairs
          la=2 lb=1:    286 shell pairs
          la=2 lb=2:     91 shell pairs
          la=3 lb=0:     90 shell pairs
          la=3 lb=1:     66 shell pairs
          la=3 lb=2:     39 shell pairs
          la=3 lb=3:      6 shell pairs

Calculating one electron integrals          ... done (  0.0 sec)
Calculating RI/J V-Matrix + Cholesky decomp.... done (  0.0 sec)
Calculating Nuclear repulsion               ... done (  0.0 sec) ENN=     67.905648668023 Eh

Diagonalization of the overlap matrix:
Smallest eigenvalue                        ... 1.967e-05
Time for diagonalization                   ...    0.003 sec
Threshold for overlap eigenvalues          ... 1.000e-07
Number of eigenvalues below threshold      ... 0
Time for construction of square roots      ...    0.004 sec
Total time needed                          ...    0.009 sec

-------------------
DFT GRID GENERATION
-------------------

General Integration Accuracy     IntAcc      ... 4.388
Radial Grid Type                 RadialGrid  ... OptM3 with GC (2021)
Angular Grid (max. ang.)         AngularGrid ... 4 (Lebedev-302)
Angular grid pruning method      GridPruning ... 4 (adaptive)
Weight generation scheme         WeightScheme... mBecke (2022)
Basis function cutoff            BFCut       ... 1.0000e-11
Integration weight cutoff        WCut        ... 1.0000e-14
Partially contracted basis set               ... off
Rotationally invariant grid construction     ... off
Angular grids for H and He will be reduced by one unit
Diffuse basis detected: some atoms will have their outermost
                        angular grid increased by 1.

Total number of grid points                  ...    33165
Total number of batches                      ...      520
Average number of points per batch           ...       63
Average number of grid points per atom       ...     4738

--------------------
COSX GRID GENERATION
--------------------

GRIDX 1
-------
General Integration Accuracy     IntAcc      ... 3.816
Radial Grid Type                 RadialGrid  ... OptM3 with GC (2021)
Angular Grid (max. ang.)         AngularGrid ... 1 (Lebedev-50)
Angular grid pruning method      GridPruning ... 4 (adaptive)
Weight generation scheme         WeightScheme... mBecke (2022)
Basis function cutoff            BFCut       ... 1.0000e-11
Integration weight cutoff        WCut        ... 1.0000e-14
Partially contracted basis set               ... on
Rotationally invariant grid construction     ... off
Angular grids for H and He will be reduced by one unit
Diffuse basis detected: some atoms will have their outermost
                        angular grid increased by 1.

Total number of grid points                  ...     4175
Total number of batches                      ...       36
Average number of points per batch           ...      115
Average number of grid points per atom       ...      596
UseSFitting                                  ... on

GRIDX 2
-------
General Integration Accuracy     IntAcc      ... 4.020
Radial Grid Type                 RadialGrid  ... OptM3 with GC (2021)
Angular Grid (max. ang.)         AngularGrid ... 2 (Lebedev-110)
Angular grid pruning method      GridPruning ... 4 (adaptive)
Weight generation scheme         WeightScheme... mBecke (2022)
Basis function cutoff            BFCut       ... 1.0000e-11
Integration weight cutoff        WCut        ... 1.0000e-14
Partially contracted basis set               ... on
Rotationally invariant grid construction     ... off
Angular grids for H and He will be reduced by one unit
Diffuse basis detected: some atoms will have their outermost
                        angular grid increased by 1.

Total number of grid points                  ...    10282
Total number of batches                      ...       83
Average number of points per batch           ...      123
Average number of grid points per atom       ...     1469
UseSFitting                                  ... on

GRIDX 3
-------
General Integration Accuracy     IntAcc      ... 4.338
Radial Grid Type                 RadialGrid  ... OptM3 with GC (2021)
Angular Grid (max. ang.)         AngularGrid ... 3 (Lebedev-194)
Angular grid pruning method      GridPruning ... 4 (adaptive)
Weight generation scheme         WeightScheme... mBecke (2022)
Basis function cutoff            BFCut       ... 1.0000e-11
Integration weight cutoff        WCut        ... 1.0000e-14
Partially contracted basis set               ... on
Rotationally invariant grid construction     ... off
Angular grids for H and He will be reduced by one unit
Diffuse basis detected: some atoms will have their outermost
                        angular grid increased by 1.

Total number of grid points                  ...    23138
Total number of batches                      ...      184
Average number of points per batch           ...      125
Average number of grid points per atom       ...     3305
UseSFitting                                  ... on
Initializing property integral containers    ... done (  0.0 sec)

SHARK setup successfully completed in   0.4 seconds

Maximum memory used throughout the entire STARTUP-calculation: 13.8 MB
[1741608984.076870] [ohm:3278660:0]        ib_iface.c:1059 UCX  ERROR ibv_create_cq(cqe=256) failed: Connection timed out
[1741608984.082127] [ohm:3278663:0]        ib_iface.c:1059 UCX  ERROR ibv_create_cq(cqe=256) failed: Connection timed out
[1741608984.083952] [ohm:3278658:0]        ib_iface.c:1059 UCX  ERROR ibv_create_cq(cqe=256) failed: Connection timed out
[1741608984.086596] [ohm:3278670:0]        ib_iface.c:1059 UCX  ERROR ibv_create_cq(cqe=256) failed: Connection timed out
[1741608984.095970] [ohm:3278659:0]        ib_iface.c:1059 UCX  ERROR ibv_create_cq(cqe=256) failed: Connection timed out
[1741608984.103746] [ohm:3278661:0]        ib_iface.c:1059 UCX  ERROR ibv_create_cq(cqe=256) failed: Connection timed out
[1741608984.104078] [ohm:3278656:0]        ib_iface.c:1059 UCX  ERROR ibv_create_cq(cqe=256) failed: Connection timed out
[1741608984.105102] [ohm:3278665:0]        ib_iface.c:1059 UCX  ERROR ibv_create_cq(cqe=256) failed: Connection timed out
[1741608984.110961] [ohm:3278662:0]        ib_iface.c:1059 UCX  ERROR ibv_create_cq(cqe=256) failed: Connection timed out
[1741608984.113023] [ohm:3278669:0]        ib_iface.c:1059 UCX  ERROR ibv_create_cq(cqe=256) failed: Connection timed out
[1741608984.113709] [ohm:3278657:0]        ib_iface.c:1059 UCX  ERROR ibv_create_cq(cqe=256) failed: Connection timed out
[1741608984.114657] [ohm:3278664:0]        ib_iface.c:1059 UCX  ERROR ibv_create_cq(cqe=256) failed: Connection timed out
[1741608984.120223] [ohm:3278672:0]        ib_iface.c:1059 UCX  ERROR ibv_create_cq(cqe=256) failed: Connection timed out
[1741608984.123772] [ohm:3278671:0]        ib_iface.c:1059 UCX  ERROR ibv_create_cq(cqe=256) failed: Connection timed out
[1741608984.126694] [ohm:3278682:0]        ib_iface.c:1059 UCX  ERROR ibv_create_cq(cqe=256) failed: Connection timed out
[1741608984.127229] [ohm:3278675:0]        ib_iface.c:1059 UCX  ERROR ibv_create_cq(cqe=256) failed: Connection timed out
[1741608984.129868] [ohm:3278676:0]        ib_iface.c:1059 UCX  ERROR ibv_create_cq(cqe=256) failed: Connection timed out
[1741608984.131281] [ohm:3278673:0]        ib_iface.c:1059 UCX  ERROR ibv_create_cq(cqe=256) failed: Connection timed out
[1741608984.149807] [ohm:3278677:0]        ib_iface.c:1059 UCX  ERROR ibv_create_cq(cqe=256) failed: Connection timed out
[1741608984.156437] [ohm:3278687:0]        ib_iface.c:1059 UCX  ERROR ibv_create_cq(cqe=256) failed: Connection timed out
[1741608984.189480] [ohm:3278811:0]        ib_iface.c:1059 UCX  ERROR ibv_create_cq(cqe=256) failed: Connection timed out
[1741608984.192936] [ohm:3278689:0]        ib_iface.c:1059 UCX  ERROR ibv_create_cq(cqe=256) failed: Connection timed out
[1741608984.198433] [ohm:3278668:0]        ib_iface.c:1059 UCX  ERROR ibv_create_cq(cqe=256) failed: Connection timed out
[1741608984.201803] [ohm:3278770:0]        ib_iface.c:1059 UCX  ERROR ibv_create_cq(cqe=256) failed: Connection timed out
[1741608984.202360] [ohm:3278744:0]        ib_iface.c:1059 UCX  ERROR ibv_create_cq(cqe=256) failed: Connection timed out
[1741608984.210811] [ohm:3278802:0]        ib_iface.c:1059 UCX  ERROR ibv_create_cq(cqe=256) failed: Connection timed out
[1741608984.221765] [ohm:3278674:0]        ib_iface.c:1059 UCX  ERROR ibv_create_cq(cqe=256) failed: Connection timed out
[1741608984.231274] [ohm:3278797:0]        ib_iface.c:1059 UCX  ERROR ibv_create_cq(cqe=256) failed: Connection timed out
[1741608984.233728] [ohm:3278780:0]        ib_iface.c:1059 UCX  ERROR ibv_create_cq(cqe=256) failed: Connection timed out
[1741608984.243502] [ohm:3278753:0]        ib_iface.c:1059 UCX  ERROR ibv_create_cq(cqe=256) failed: Connection timed out
[1741608984.247767] [ohm:3278725:0]        ib_iface.c:1059 UCX  ERROR ibv_create_cq(cqe=256) failed: Connection timed out
[1741608984.262085] [ohm:3278771:0]        ib_iface.c:1059 UCX  ERROR ibv_create_cq(cqe=256) failed: Connection timed out
[1741608984.262420] [ohm:3278711:0]        ib_iface.c:1059 UCX  ERROR ibv_create_cq(cqe=256) failed: Connection timed out
[1741608984.286606] [ohm:3278736:0]        ib_iface.c:1059 UCX  ERROR ibv_create_cq(cqe=256) failed: Connection timed out
[1741608984.300941] [ohm:3278774:0]        ib_iface.c:1059 UCX  ERROR ibv_create_cq(cqe=256) failed: Connection timed out
[1741608984.303024] [ohm:3278788:0]        ib_iface.c:1059 UCX  ERROR ibv_create_cq(cqe=256) failed: Connection timed out
[1741608984.304578] [ohm:3278727:0]        ib_iface.c:1059 UCX  ERROR ibv_create_cq(cqe=256) failed: Connection timed out
[1741608984.304633] [ohm:3278781:0]        ib_iface.c:1059 UCX  ERROR ibv_create_cq(cqe=256) failed: Connection timed out
[1741608984.306141] [ohm:3278706:0]        ib_iface.c:1059 UCX  ERROR ibv_create_cq(cqe=256) failed: Connection timed out
[1741608984.307998] [ohm:3278704:0]        ib_iface.c:1059 UCX  ERROR ibv_create_cq(cqe=256) failed: Connection timed out
[1741608984.309208] [ohm:3278755:0]        ib_iface.c:1059 UCX  ERROR ibv_create_cq(cqe=256) failed: Connection timed out
[1741608984.310612] [ohm:3278715:0]        ib_iface.c:1059 UCX  ERROR ibv_create_cq(cqe=256) failed: Connection timed out
[1741608984.314741] [ohm:3278758:0]        ib_iface.c:1059 UCX  ERROR ibv_create_cq(cqe=256) failed: Connection timed out
[1741608984.316427] [ohm:3278708:0]        ib_iface.c:1059 UCX  ERROR ibv_create_cq(cqe=256) failed: Connection timed out
[1741608984.320331] [ohm:3278790:0]        ib_iface.c:1059 UCX  ERROR ibv_create_cq(cqe=256) failed: Connection timed out
[1741608984.323833] [ohm:3278698:0]        ib_iface.c:1059 UCX  ERROR ibv_create_cq(cqe=256) failed: Connection timed out
[1741608984.325395] [ohm:3278775:0]        ib_iface.c:1059 UCX  ERROR ibv_create_cq(cqe=256) failed: Connection timed out
[1741608984.344831] [ohm:3278805:0]        ib_iface.c:1059 UCX  ERROR ibv_create_cq(cqe=256) failed: Connection timed out
[1741608984.348273] [ohm:3278695:0]        ib_iface.c:1059 UCX  ERROR ibv_create_cq(cqe=256) failed: Connection timed out
[1741608984.354727] [ohm:3278766:0]        ib_iface.c:1059 UCX  ERROR ibv_create_cq(cqe=256) failed: Connection timed out
[1741608984.356614] [ohm:3278720:0]        ib_iface.c:1059 UCX  ERROR ibv_create_cq(cqe=256) failed: Connection timed out
[1741608984.357702] [ohm:3278794:0]        ib_iface.c:1059 UCX  ERROR ibv_create_cq(cqe=256) failed: Connection timed out
[1741608984.358144] [ohm:3278679:0]        ib_iface.c:1059 UCX  ERROR ibv_create_cq(cqe=256) failed: Connection timed out
[1741608984.358751] [ohm:3278681:0]        ib_iface.c:1059 UCX  ERROR ibv_create_cq(cqe=256) failed: Connection timed out
[1741608984.361292] [ohm:3278667:0]        ib_iface.c:1059 UCX  ERROR ibv_create_cq(cqe=256) failed: Connection timed out
[1741608984.361455] [ohm:3278740:0]        ib_iface.c:1059 UCX  ERROR ibv_create_cq(cqe=256) failed: Connection timed out
[1741608984.365024] [ohm:3278678:0]        ib_iface.c:1059 UCX  ERROR ibv_create_cq(cqe=256) failed: Connection timed out
[1741608984.365047] [ohm:3278733:0]        ib_iface.c:1059 UCX  ERROR ibv_create_cq(cqe=256) failed: Connection timed out
[1741608984.366583] [ohm:3278700:0]        ib_iface.c:1059 UCX  ERROR ibv_create_cq(cqe=256) failed: Connection timed out
[1741608984.367844] [ohm:3278666:0]        ib_iface.c:1059 UCX  ERROR ibv_create_cq(cqe=256) failed: Connection timed out
[1741608984.367865] [ohm:3278762:0]        ib_iface.c:1059 UCX  ERROR ibv_create_cq(cqe=256) failed: Connection timed out
[1741608984.370839] [ohm:3278749:0]        ib_iface.c:1059 UCX  ERROR ibv_create_cq(cqe=256) failed: Connection timed out
[1741608984.371367] [ohm:3278685:0]        ib_iface.c:1059 UCX  ERROR ibv_create_cq(cqe=256) failed: Connection timed out
[1741608984.372132] [ohm:3278680:0]        ib_iface.c:1059 UCX  ERROR ibv_create_cq(cqe=256) failed: Connection timed out


           ************************************************************
           *        Program running with 64 parallel MPI-processes    *
           *              working on a common directory               *
           ************************************************************
-------------------------------------------------------------------------------
                                 ORCA GUESS
                   Start orbitals & Density for SCF / CASSCF
-------------------------------------------------------------------------------

------------
SCF SETTINGS
------------
Hamiltonian:
 Density Functional     Method          .... DFT(GTOs)
  Functional kind                       .... Exchange-Correlation
  Functional name                       .... wB97M-V exchange-correlation functional
  Functional family                     .... Hybrid MGGA
  Functional refs                              
    [ 0] N. Mardirossian and M. Head-Gordon.,  J. Chem. Phys. 144, 214110 (2016), doi: 10.1063/1.4952647
  Fraction of HF Exchange (short range) .... 0.1500
  Fraction of HF Exchange (long range)  .... 1.0000
  Range separation parameter mu         .... 0.3000
  Functional external parameters        .... 17
    Parameter  0 _cx00      =  8.500000e-01 : u^00 coefficient for exchange
    Parameter  1 _cx01      =  1.007000e+00 : u^01 coefficient for exchange
    Parameter  2 _cx10      =  2.590000e-01 : u^10 coefficient for exchange
    Parameter  3 _css00     =  4.430000e-01 : u^00 coefficient for same-spin correlation
    Parameter  4 _css04     = -1.437000e+00 : u^04 coefficient for same-spin correlation
    Parameter  5 _css10     = -4.535000e+00 : u^10 coefficient for same-spin correlation
    Parameter  6 _css20     = -3.390000e+00 : u^20 coefficient for same-spin correlation
    Parameter  7 _css43     =  4.278000e+00 : u^43 coefficient for same-spin correlation
    Parameter  8 _cos00     =  1.000000e+00 : u^00 coefficient for opposite-spin correlation
    Parameter  9 _cos10     =  1.358000e+00 : u^10 coefficient for opposite-spin correlation
    Parameter 10 _cos20     =  2.924000e+00 : u^20 coefficient for opposite-spin correlation
    Parameter 11 _cos21     = -8.812000e+00 : u^21 coefficient for opposite-spin correlation
    Parameter 12 _cos60     = -1.390000e+00 : u^60 coefficient for opposite-spin correlation
    Parameter 13 _cos61     =  9.142000e+00 : u^61 coefficient for opposite-spin correlation
    Parameter 14 _alpha     =  1.000000e+00 : fraction of HF exchange
    Parameter 15 _beta      = -8.500000e-01 : fraction of short-range exchange
    Parameter 16 _omega     =  3.000000e-01 : range-separation constant
 Long-range corrected/Screened/Range-Separated Hybrid DFT is turned on
   Amount of maximum screened exact exchange              ....  0.850000
   Range separation parameter mu (erf(mu*r12)/r12)        ....  0.300000
 RI-approximation to the Coulomb term is turned on
   Number of AuxJ basis functions       .... 191
   RIJ-COSX (HFX calculated with COS-X)).... on


General Settings:
 Integral files         IntName         .... orca
 Hartree-Fock type      HFTyp           .... UHF
 Total Charge           Charge          ....    0
 Multiplicity           Mult            ....    3
 Number of Electrons    NEL             ....   24
 Basis Dimension        Dim             ....  182
 Nuclear Repulsion      ENuc            ....     67.9056486680 Eh

Convergence Acceleration:
 AO-DIIS                CNVDIIS         .... on
   Start iteration      DIISMaxIt       ....    12
   Startup error        DIISStart       ....  0.200000
   # of expansion vecs  DIISMaxEq       ....     5
   Bias factor          DIISBfac        ....   1.050
   Max. coefficient     DIISMaxC        ....  10.000
 MO-DIIS                CNVKDIIS        .... off
 Trust-Rad. Augm. Hess. CNVTRAH         .... auto
   Auto Start mean grad. ratio tolernc. ....  1.125000
   Auto Start start iteration           ....    50
   Auto Start num. interpolation iter.  ....    10
   Max. Number of Micro iterations      ....    24
   Max. Number of Macro iterations      .... Maxiter - #DIIS iter
   Number of Davidson start vectors     ....     2
   Converg. threshold    (grad. norm)   ....   1.000e-05
   Grad. Scal. Fac. for Micro threshold ....   0.100
   Minimum threshold for Micro iter.    ....   1.000e-02
   NR start threshold (gradient norm)   ....   1.000e-04
   Initial trust radius                 ....   0.400
   Minimum AH scaling param. (alpha)    ....   1.000
   Maximum AH scaling param. (alpha)    .... 1000.000
   Quad. conv. algorithm                .... NR
   White noise on init. David. guess    .... on
   Maximum white noise                  ....   0.010
   Pseudo random numbers                .... off
   Inactive MOs                         .... canonical
   Orbital update algorithm             .... Taylor
   Preconditioner                       .... Diag
   Full preconditioner red. dimension   ....   250
 SOSCF                  CNVSOSCF        .... on
   Start iteration      SOSCFMaxIt      ....   150
   Startup grad/error   SOSCFStart      ....  0.003300
   Hessian update       SOSCFHessUp     .... L-BFGS
 Level Shifting         CNVShift        .... on
   Level shift para.    LevelShift      ....    0.2500
   Turn off err/grad.   ShiftErr        ....    0.0010
 Zerner damping         CNVZerner       .... off
 Static damping         CNVDamp         .... on
   Fraction old density DampFac         ....    0.7000
   Max. Damping (<1)    DampMax         ....    0.9800
   Min. Damping (>=0)   DampMin         ....    0.0000
   Turn off err/grad.   DampErr         ....    0.1000

SCF Procedure:
 Maximum # iterations   MaxIter         ....   125
 SCF integral mode      SCFMode         .... Direct
   Integral package                     .... SHARK and LIBINT hybrid scheme
 Reset frequency        DirectResetFreq ....    20
 Integral Threshold     Thresh          ....  2.500e-11 Eh
 Primitive CutOff       TCut            ....  2.500e-12 Eh

Convergence Tolerance:
 Convergence Check Mode ConvCheckMode   .... Total+1el-Energy
 Convergence forced     ConvForced      .... 1
 Energy Change          TolE            ....  1.000e-08 Eh
 1-El. energy change                    ....  1.000e-05 Eh
 Orbital Gradient       TolG            ....  1.000e-05
 Orbital Rotation angle TolX            ....  1.000e-05
 DIIS Error             TolErr          ....  5.000e-07

------------------------------
INITIAL GUESS: MODEL POTENTIAL
------------------------------
Loading Hartree-Fock densities                     ... done
Calculating cut-offs                               ... done
Initializing the effective Hamiltonian             ... done
Setting up the integral package (SHARK)            ... done
Starting the Coulomb interaction                   ... done (   0.0 sec)
Making the grid                                    ... done (   0.0 sec)
Mapping shells                                     ... done
Starting the XC term evaluation                    ... done (   0.0 sec)
  promolecular density results
     # of electrons  =     23.998382221
     EX              =    -19.458117530
     EC              =     -0.765115720
     EX+EC           =    -20.223233250
Transforming the Hamiltonian                       ... done (   0.0 sec)
Diagonalizing the Hamiltonian                      ... done (   0.0 sec)
Back transforming the eigenvectors                 ... done (   0.0 sec)
Now organizing SCF variables                       ... done
                      ------------------
                      INITIAL GUESS DONE (   0.1 sec)
                      ------------------
             **** ENERGY FILE WAS UPDATED (orca.en.tmp) ****
Finished Guess after   1.7 sec
Maximum memory used throughout the entire GUESS-calculation: 9.5 MB
[1741608986.188288] [ohm:3278990:0]        ib_iface.c:1059 UCX  ERROR ibv_create_cq(cqe=256) failed: Connection timed out
[1741608986.191089] [ohm:3278998:0]        ib_iface.c:1059 UCX  ERROR ibv_create_cq(cqe=256) failed: Connection timed out
[1741608986.199760] [ohm:3279000:0]        ib_iface.c:1059 UCX  ERROR ibv_create_cq(cqe=256) failed: Connection timed out
[1741608986.202173] [ohm:3279034:0]        ib_iface.c:1059 UCX  ERROR ibv_create_cq(cqe=256) failed: Connection timed out
[1741608986.202517] [ohm:3278999:0]        ib_iface.c:1059 UCX  ERROR ibv_create_cq(cqe=256) failed: Connection timed out
[1741608986.209633] [ohm:3278993:0]        ib_iface.c:1059 UCX  ERROR ibv_create_cq(cqe=256) failed: Connection timed out
[1741608986.212126] [ohm:3279004:0]        ib_iface.c:1059 UCX  ERROR ibv_create_cq(cqe=256) failed: Connection timed out
[1741608986.218368] [ohm:3279005:0]        ib_iface.c:1059 UCX  ERROR ibv_create_cq(cqe=256) failed: Connection timed out
[1741608986.220930] [ohm:3279022:0]        ib_iface.c:1059 UCX  ERROR ibv_create_cq(cqe=256) failed: Connection timed out
[1741608986.221310] [ohm:3279025:0]        ib_iface.c:1059 UCX  ERROR ibv_create_cq(cqe=256) failed: Connection timed out
[1741608986.222001] [ohm:3278994:0]        ib_iface.c:1059 UCX  ERROR ibv_create_cq(cqe=256) failed: Connection timed out
[1741608986.225500] [ohm:3279030:0]        ib_iface.c:1059 UCX  ERROR ibv_create_cq(cqe=256) failed: Connection timed out
[1741608986.265860] [ohm:3278997:0]        ib_iface.c:1059 UCX  ERROR ibv_create_cq(cqe=256) failed: Connection timed out
[1741608986.273720] [ohm:3279049:0]        ib_iface.c:1059 UCX  ERROR ibv_create_cq(cqe=256) failed: Connection timed out
[1741608986.279006] [ohm:3278992:0]        ib_iface.c:1059 UCX  ERROR ibv_create_cq(cqe=256) failed: Connection timed out
[1741608986.288767] [ohm:3279126:0]        ib_iface.c:1059 UCX  ERROR ibv_create_cq(cqe=256) failed: Connection timed out
[1741608986.290844] [ohm:3279125:0]        ib_iface.c:1059 UCX  ERROR ibv_create_cq(cqe=256) failed: Connection timed out
[1741608986.295457] [ohm:3279052:0]        ib_iface.c:1059 UCX  ERROR ibv_create_cq(cqe=256) failed: Connection timed out
[1741608986.302930] [ohm:3278991:0]        ib_iface.c:1059 UCX  ERROR ibv_create_cq(cqe=256) failed: Connection timed out
[1741608986.305003] [ohm:3279002:0]        ib_iface.c:1059 UCX  ERROR ibv_create_cq(cqe=256) failed: Connection timed out
[1741608986.305314] [ohm:3279051:0]        ib_iface.c:1059 UCX  ERROR ibv_create_cq(cqe=256) failed: Connection timed out
[1741608986.315985] [ohm:3279053:0]        ib_iface.c:1059 UCX  ERROR ibv_create_cq(cqe=256) failed: Connection timed out
[1741608986.316127] [ohm:3279042:0]        ib_iface.c:1059 UCX  ERROR ibv_create_cq(cqe=256) failed: Connection timed out
[1741608986.327773] [ohm:3279058:0]        ib_iface.c:1059 UCX  ERROR ibv_create_cq(cqe=256) failed: Connection timed out
[1741608986.328184] [ohm:3279061:0]        ib_iface.c:1059 UCX  ERROR ibv_create_cq(cqe=256) failed: Connection timed out
[1741608986.332601] [ohm:3279054:0]        ib_iface.c:1059 UCX  ERROR ibv_create_cq(cqe=256) failed: Connection timed out
[1741608986.333127] [ohm:3279062:0]        ib_iface.c:1059 UCX  ERROR ibv_create_cq(cqe=256) failed: Connection timed out
[1741608986.345834] [ohm:3279085:0]        ib_iface.c:1059 UCX  ERROR ibv_create_cq(cqe=256) failed: Connection timed out
[1741608986.358047] [ohm:3279075:0]        ib_iface.c:1059 UCX  ERROR ibv_create_cq(cqe=256) failed: Connection timed out
[1741608986.359334] [ohm:3279068:0]        ib_iface.c:1059 UCX  ERROR ibv_create_cq(cqe=256) failed: Connection timed out
[1741608986.368383] [ohm:3279092:0]        ib_iface.c:1059 UCX  ERROR ibv_create_cq(cqe=256) failed: Connection timed out
[1741608986.369132] [ohm:3279064:0]        ib_iface.c:1059 UCX  ERROR ibv_create_cq(cqe=256) failed: Connection timed out
[1741608986.382003] [ohm:3279143:0]        ib_iface.c:1059 UCX  ERROR ibv_create_cq(cqe=256) failed: Connection timed out
[1741608986.386483] [ohm:3279055:0]        ib_iface.c:1059 UCX  ERROR ibv_create_cq(cqe=256) failed: Connection timed out
[1741608986.387383] [ohm:3279048:0]        ib_iface.c:1059 UCX  ERROR ibv_create_cq(cqe=256) failed: Connection timed out
[1741608986.393211] [ohm:3278996:0]        ib_iface.c:1059 UCX  ERROR ibv_create_cq(cqe=256) failed: Connection timed out
[1741608986.395460] [ohm:3279060:0]        ib_iface.c:1059 UCX  ERROR ibv_create_cq(cqe=256) failed: Connection timed out
[1741608986.399306] [ohm:3279135:0]        ib_iface.c:1059 UCX  ERROR ibv_create_cq(cqe=256) failed: Connection timed out
[1741608986.400284] [ohm:3279036:0]        ib_iface.c:1059 UCX  ERROR ibv_create_cq(cqe=256) failed: Connection timed out
[1741608986.400824] [ohm:3279056:0]        ib_iface.c:1059 UCX  ERROR ibv_create_cq(cqe=256) failed: Connection timed out
[1741608986.412052] [ohm:3279082:0]        ib_iface.c:1059 UCX  ERROR ibv_create_cq(cqe=256) failed: Connection timed out
[1741608986.418141] [ohm:3279027:0]        ib_iface.c:1059 UCX  ERROR ibv_create_cq(cqe=256) failed: Connection timed out
[1741608986.419698] [ohm:3279090:0]        ib_iface.c:1059 UCX  ERROR ibv_create_cq(cqe=256) failed: Connection timed out
[1741608986.420174] [ohm:3279057:0]        ib_iface.c:1059 UCX  ERROR ibv_create_cq(cqe=256) failed: Connection timed out
[1741608986.422164] [ohm:3279041:0]        ib_iface.c:1059 UCX  ERROR ibv_create_cq(cqe=256) failed: Connection timed out
[1741608986.422626] [ohm:3279046:0]        ib_iface.c:1059 UCX  ERROR ibv_create_cq(cqe=256) failed: Connection timed out
[1741608986.427239] [ohm:3279114:0]        ib_iface.c:1059 UCX  ERROR ibv_create_cq(cqe=256) failed: Connection timed out
[1741608986.433796] [ohm:3279073:0]        ib_iface.c:1059 UCX  ERROR ibv_create_cq(cqe=256) failed: Connection timed out
[1741608986.437552] [ohm:3279099:0]        ib_iface.c:1059 UCX  ERROR ibv_create_cq(cqe=256) failed: Connection timed out
[1741608986.437683] [ohm:3279097:0]        ib_iface.c:1059 UCX  ERROR ibv_create_cq(cqe=256) failed: Connection timed out
[1741608986.440684] [ohm:3279003:0]        ib_iface.c:1059 UCX  ERROR ibv_create_cq(cqe=256) failed: Connection timed out
[1741608986.440889] [ohm:3279107:0]        ib_iface.c:1059 UCX  ERROR ibv_create_cq(cqe=256) failed: Connection timed out
[1741608986.444856] [ohm:3279113:0]        ib_iface.c:1059 UCX  ERROR ibv_create_cq(cqe=256) failed: Connection timed out
[1741608986.447592] [ohm:3279001:0]        ib_iface.c:1059 UCX  ERROR ibv_create_cq(cqe=256) failed: Connection timed out
[1741608986.449162] [ohm:3279059:0]        ib_iface.c:1059 UCX  ERROR ibv_create_cq(cqe=256) failed: Connection timed out
[1741608986.449555] [ohm:3279020:0]        ib_iface.c:1059 UCX  ERROR ibv_create_cq(cqe=256) failed: Connection timed out
[1741608986.449616] [ohm:3279078:0]        ib_iface.c:1059 UCX  ERROR ibv_create_cq(cqe=256) failed: Connection timed out
[1741608986.450334] [ohm:3279065:0]        ib_iface.c:1059 UCX  ERROR ibv_create_cq(cqe=256) failed: Connection timed out
[1741608986.450941] [ohm:3279120:0]        ib_iface.c:1059 UCX  ERROR ibv_create_cq(cqe=256) failed: Connection timed out
[1741608986.452893] [ohm:3279119:0]        ib_iface.c:1059 UCX  ERROR ibv_create_cq(cqe=256) failed: Connection timed out
[1741608986.453822] [ohm:3279050:0]        ib_iface.c:1059 UCX  ERROR ibv_create_cq(cqe=256) failed: Connection timed out
[1741608986.454055] [ohm:3279105:0]        ib_iface.c:1059 UCX  ERROR ibv_create_cq(cqe=256) failed: Connection timed out
[1741608986.457230] [ohm:3279131:0]        ib_iface.c:1059 UCX  ERROR ibv_create_cq(cqe=256) failed: Connection timed out
[1741608986.457313] [ohm:3278995:0]        ib_iface.c:1059 UCX  ERROR ibv_create_cq(cqe=256) failed: Connection timed out


           ************************************************************
           *        Program running with 64 parallel MPI-processes    *
           *              working on a common directory               *
           ************************************************************

-------------------------------------------------------------------------------------------
                                      ORCA LEAN-SCF
                              memory conserving SCF solver
-------------------------------------------------------------------------------------------

----------------------------------------D-I-I-S--------------------------------------------
Iteration    Energy (Eh)           Delta-E    RMSDP     MaxDP     DIISErr   Damp  Time(sec)
-------------------------------------------------------------------------------------------
               ***  Starting incremental Fock matrix formation  ***
    1    -153.7064087944967810     0.00e+00  8.30e-04  2.25e-02  8.36e-02  0.700   0.3
    2    -153.7335146824038929    -2.71e-02  7.34e-04  2.01e-02  5.22e-02  0.700   0.3
                               ***Turning on AO-DIIS***
    3    -153.7483929548920401    -1.49e-02  6.06e-04  1.96e-02  3.34e-02  0.700   0.3
    4    -153.7577186279261809    -9.33e-03  1.54e-03  5.28e-02  2.74e-02  0.000   0.3
    5    -153.7801047816452638    -2.24e-02  1.64e-04  5.76e-03  1.02e-02  0.000   0.3
    6    -153.7807733576082114    -6.69e-04  1.05e-04  2.95e-03  5.38e-03  0.000   0.3
    7    -153.7810995945844752    -3.26e-04  6.30e-05  1.78e-03  4.17e-03  0.000   0.3
                              *** Initializing SOSCF ***
---------------------------------------S-O-S-C-F--------------------------------------
Iteration    Energy (Eh)           Delta-E    RMSDP     MaxDP     MaxGrad    Time(sec)
--------------------------------------------------------------------------------------
    8    -153.7812497822632167    -1.50e-04  3.51e-05  8.90e-04  1.82e-03     0.3
               *** Restarting incremental Fock matrix formation ***
    9    -153.7812967854699195    -4.70e-05  2.03e-05  6.15e-04  1.20e-03     0.3
   10    -153.7813089138523992    -1.21e-05  3.70e-05  1.14e-03  5.51e-04     0.3
   11    -153.7813178763361179    -8.96e-06  1.31e-05  3.82e-04  4.63e-04     0.2
   12    -153.7813209737846591    -3.10e-06  2.27e-05  8.57e-04  4.63e-04     0.3
   13    -153.7813255678155997    -4.59e-06  6.33e-05  2.79e-03  4.36e-04     0.3
   14    -153.7813356218092622    -1.01e-05  7.42e-05  3.35e-03  3.63e-04     0.3
   15    -153.7813446612900066    -9.04e-06  6.36e-05  2.64e-03  3.42e-04     0.3
   16    -153.7813503449677910    -5.68e-06  2.05e-05  7.06e-04  2.55e-04     0.3
   17    -153.7813517644777335    -1.42e-06  5.74e-06  1.81e-04  1.60e-04     0.3
   18    -153.7813519841729999    -2.20e-07  2.59e-06  1.03e-04  6.62e-05     0.3
   19    -153.7813520263327973    -4.22e-08  1.06e-06  2.57e-05  2.60e-05     0.2
   20    -153.7813520354418984    -9.11e-09  6.88e-07  2.42e-05  8.39e-06     0.3
                 **** Energy Check signals convergence ****

               *****************************************************
               *                     SUCCESS                       *
               *           SCF CONVERGED AFTER  20 CYCLES          *
               *****************************************************

Recomputing exchange energy using gridx3       ... done (    0.177 sec)
Old exchange energy                            :     -6.194897397 Eh
New exchange energy                            :     -6.194892711 Eh
Exchange energy change after final integration :      0.000004686 Eh
Total energy after final integration           :   -153.781347350 Eh
             **** ENERGY FILE WAS UPDATED (orca.en.tmp) ****

----------------
TOTAL SCF ENERGY
----------------

Total Energy       :       -153.78134734981742 Eh           -4184.60320 eV

Components:
Nuclear Repulsion  :         67.90564866802289 Eh            1847.80664 eV
Electronic Energy  :       -221.68700070346483 Eh           -6032.40997 eV
One Electron Energy:       -342.37975358731870 Eh           -9316.62674 eV
Two Electron Energy:        120.69275288385388 Eh            3284.21677 eV

Virial components:
Potential Energy   :       -307.04798112485628 Eh           -8355.20034 eV
Kinetic Energy     :        153.26663377503883 Eh            4170.59713 eV
Virial Ratio       :          2.00335828850743

DFT components:
N(Alpha)           :       12.999994542642 electrons
N(Beta)            :       10.999988121832 electrons
N(Total)           :       23.999982664474 electrons
E(XC)              :      -14.689237131067 Eh       

---------------
SCF CONVERGENCE
---------------

  Last Energy change         ...    9.1091e-09  Tolerance :   1.0000e-08
  Last MAX-Density change    ...    2.4171e-05  Tolerance :   1.0000e-07
  Last RMS-Density change    ...    6.8780e-07  Tolerance :   5.0000e-09
  Last DIIS Error            ...    1.8204e-03  Tolerance :   5.0000e-07
  Last Orbital Gradient      ...    8.3890e-06  Tolerance :   1.0000e-05
  Last Orbital Rotation      ...    1.4892e-04  Tolerance :   1.0000e-05


----------------------
UHF SPIN CONTAMINATION
----------------------

Warning: in a DFT calculation there is little theoretical justification to 
         calculate <S**2> as in Hartree-Fock theory. We will do it anyways
         but you should keep in mind that the values have only limited relevance

Expectation value of <S**2>     :     2.008631
Ideal value S*(S+1) for S=1.0   :     2.000000
Deviation                       :     0.008631

----------------
ORBITAL ENERGIES
----------------
                 SPIN UP ORBITALS
  NO   OCC          E(Eh)            E(eV) 
   0   1.0000     -19.384719      -527.4850 
   1   1.0000     -10.415291      -283.4145 
   2   1.0000     -10.370961      -282.2082 
   3   1.0000      -1.170544       -31.8521 
   4   1.0000      -0.877400       -23.8753 
   5   1.0000      -0.730434       -19.8761 
   6   1.0000      -0.617534       -16.8039 
   7   1.0000      -0.583998       -15.8914 
   8   1.0000      -0.556240       -15.1361 
   9   1.0000      -0.521386       -14.1876 
  10   1.0000      -0.432204       -11.7609 
  11   1.0000      -0.410848       -11.1797 
  12   1.0000      -0.327291        -8.9060 
  13   0.0000       0.040994         1.1155 
  14   0.0000       0.060773         1.6537 
  15   0.0000       0.076955         2.0940 
  16   0.0000       0.087610         2.3840 
  17   0.0000       0.113873         3.0986 
  18   0.0000       0.121943         3.3182 
  19   0.0000       0.130201         3.5429 
  20   0.0000       0.139509         3.7962 
  21   0.0000       0.179824         4.8933 
  22   0.0000       0.183840         5.0025 
  23   0.0000       0.200543         5.4571 

                 SPIN DOWN ORBITALS
  NO   OCC          E(Eh)            E(eV) 
   0   1.0000     -19.361174      -526.8443 
   1   1.0000     -10.416795      -283.4554 
   2   1.0000     -10.357526      -281.8426 
   3   1.0000      -1.118232       -30.4286 
   4   1.0000      -0.844106       -22.9693 
   5   1.0000      -0.703535       -19.1442 
   6   1.0000      -0.589545       -16.0423 
   7   1.0000      -0.541813       -14.7435 
   8   1.0000      -0.534942       -14.5565 
   9   1.0000      -0.490547       -13.3485 
  10   1.0000      -0.380626       -10.3574 
  11   0.0000      -0.052943        -1.4407 
  12   0.0000      -0.004476        -0.1218 
  13   0.0000       0.040681         1.1070 
  14   0.0000       0.060997         1.6598 
  15   0.0000       0.076781         2.0893 
  16   0.0000       0.089259         2.4289 
  17   0.0000       0.114266         3.1093 
  18   0.0000       0.124581         3.3900 
  19   0.0000       0.133685         3.6378 
  20   0.0000       0.142193         3.8693 
  21   0.0000       0.184762         5.0276 
*Only the first 10 virtual orbitals were printed.

                    ********************************
                    * MULLIKEN POPULATION ANALYSIS *
                    ********************************

--------------------------------------------
MULLIKEN ATOMIC CHARGES AND SPIN POPULATIONS
--------------------------------------------
   0 O :   -0.339814    0.902497
   1 C :    0.089255   -0.005478
   2 C :   -0.633653    0.873973
   3 H :    0.177262    0.138145
   4 H :    0.199236    0.041571
   5 H :    0.283546    0.025912
   6 H :    0.224168    0.023380
Sum of atomic charges         :   -0.0000000
Sum of atomic spin populations:    2.0000000

-----------------------------------------------------
MULLIKEN REDUCED ORBITAL CHARGES AND SPIN POPULATIONS
-----------------------------------------------------
CHARGE
  0 O s       :     3.997743  s :     3.997743
      pz      :     1.182076  p :     4.319279
      px      :     1.314873
      py      :     1.822330
      dz2     :     0.002724  d :     0.021503
      dxz     :     0.007094
      dyz     :     0.000617
      dx2y2   :     0.007158
      dxy     :     0.003910
      f0      :     0.000104  f :     0.001289
      f+1     :     0.000192
      f-1     :     0.000027
      f+2     :     0.000222
      f-2     :     0.000056
      f+3     :     0.000394
      f-3     :     0.000294

  1 C s       :     3.188530  s :     3.188530
      pz      :     1.041920  p :     2.544464
      px      :     0.608101
      py      :     0.894443
      dz2     :     0.013764  d :     0.167027
      dxz     :     0.043472
      dyz     :     0.030048
      dx2y2   :     0.014101
      dxy     :     0.065643
      f0      :     0.001066  f :     0.010724
      f+1     :     0.001090
      f-1     :     0.000616
      f+2     :     0.001381
      f-2     :     0.000745
      f+3     :     0.002142
      f-3     :     0.003683

  2 C s       :     3.617388  s :     3.617388
      pz      :     0.975388  p :     2.988607
      px      :     1.015371
      py      :     0.997847
      dz2     :     0.006312  d :     0.024029
      dxz     :     0.009220
      dyz     :     0.002201
      dx2y2   :     0.001487
      dxy     :     0.004809
      f0      :     0.000516  f :     0.003630
      f+1     :     0.000237
      f-1     :     0.000350
      f+2     :     0.000363
      f-2     :     0.000577
      f+3     :     0.000704
      f-3     :     0.000884

  3 H s       :     0.789866  s :     0.789866
      pz      :     0.018147  p :     0.030449
      px      :     0.009699
      py      :     0.002603
      dz2     :     0.000742  d :     0.002423
      dxz     :     0.000771
      dyz     :     0.000640
      dx2y2   :     0.000117
      dxy     :     0.000154

  4 H s       :     0.751518  s :     0.751518
      pz      :     0.008786  p :     0.046546
      px      :     0.017887
      py      :     0.019873
      dz2     :     0.000672  d :     0.002700
      dxz     :     0.000342
      dyz     :     0.000428
      dx2y2   :     0.000675
      dxy     :     0.000582

  5 H s       :     0.673251  s :     0.673251
      pz      :     0.019154  p :     0.040961
      px      :     0.005436
      py      :     0.016371
      dz2     :     0.000324  d :     0.002241
      dxz     :     0.000126
      dyz     :     0.000624
      dx2y2   :     0.000522
      dxy     :     0.000646

  6 H s       :     0.734162  s :     0.734162
      pz      :     0.018471  p :     0.039295
      px      :     0.010822
      py      :     0.010001
      dz2     :     0.000610  d :     0.002375
      dxz     :     0.000498
      dyz     :     0.000304
      dx2y2   :     0.000436
      dxy     :     0.000527


SPIN
  0 O s       :     0.003849  s :     0.003849
      pz      :     0.726050  p :     0.903505
      px      :     0.084692
      py      :     0.092763
      dz2     :    -0.000554  d :    -0.004669
      dxz     :    -0.003224
      dyz     :    -0.000246
      dx2y2   :    -0.000353
      dxy     :    -0.000293
      f0      :    -0.000048  f :    -0.000188
      f+1     :    -0.000107
      f-1     :     0.000012
      f+2     :    -0.000031
      f-2     :    -0.000001
      f+3     :    -0.000008
      f-3     :    -0.000006

  1 C s       :     0.006356  s :     0.006356
      pz      :    -0.028186  p :    -0.089207
      px      :    -0.043336
      py      :    -0.017686
      dz2     :     0.015325  d :     0.074428
      dxz     :     0.025700
      dyz     :     0.029314
      dx2y2   :     0.006630
      dxy     :    -0.002542
      f0      :     0.000595  f :     0.002945
      f+1     :     0.000341
      f-1     :     0.000021
      f+2     :     0.000751
      f-2     :     0.000415
      f+3     :     0.000210
      f-3     :     0.000612

  2 C s       :    -0.029181  s :    -0.029181
      pz      :     0.586158  p :     0.916102
      px      :     0.263901
      py      :     0.066043
      dz2     :    -0.000437  d :    -0.011932
      dxz     :    -0.000880
      dyz     :    -0.005256
      dx2y2   :    -0.004744
      dxy     :    -0.000614
      f0      :    -0.000272  f :    -0.001016
      f+1     :    -0.000098
      f-1     :    -0.000114
      f+2     :    -0.000182
      f-2     :    -0.000190
      f+3     :    -0.000125
      f-3     :    -0.000033

  3 H s       :     0.129501  s :     0.129501
      pz      :     0.005635  p :     0.008500
      px      :     0.001998
      py      :     0.000868
      dz2     :     0.000064  d :     0.000144
      dxz     :     0.000014
      dyz     :     0.000030
      dx2y2   :     0.000018
      dxy     :     0.000017

  4 H s       :     0.038173  s :     0.038173
      pz      :     0.000226  p :     0.003421
      px      :     0.001864
      py      :     0.001330
      dz2     :    -0.000018  d :    -0.000023
      dxz     :    -0.000009
      dyz     :     0.000022
      dx2y2   :    -0.000003
      dxy     :    -0.000015

  5 H s       :     0.001899  s :     0.001899
      pz      :     0.015671  p :     0.022963
      px      :     0.004691
      py      :     0.002601
      dz2     :     0.000211  d :     0.001049
      dxz     :     0.000025
      dyz     :     0.000434
      dx2y2   :     0.000069
      dxy     :     0.000310

  6 H s       :    -0.001871  s :    -0.001871
      pz      :     0.015868  p :     0.024252
      px      :     0.005590
      py      :     0.002794
      dz2     :     0.000570  d :     0.000999
      dxz     :     0.000035
      dyz     :     0.000057
      dx2y2   :     0.000182
      dxy     :     0.000154



                     *******************************
                     * LOEWDIN POPULATION ANALYSIS *
                     *******************************

-------------------------------------------
LOEWDIN ATOMIC CHARGES AND SPIN POPULATIONS
-------------------------------------------
   0 O :    0.048709    0.841942
   1 C :   -0.284475    0.206863
   2 C :    0.254736    0.677709
   3 H :    0.080353    0.100127
   4 H :    0.005118    0.014866
   5 H :   -0.058105    0.079725
   6 H :   -0.046336    0.078768

----------------------------------------------------
LOEWDIN REDUCED ORBITAL CHARGES AND SPIN POPULATIONS
----------------------------------------------------
CHARGE
  0 O s       :     3.469443  s :     3.469443
      pz      :     1.114061  p :     4.211548
      px      :     1.439392
      py      :     1.658095
      dz2     :     0.030758  d :     0.266059
      dxz     :     0.077392
      dyz     :     0.007785
      dx2y2   :     0.059061
      dxy     :     0.091064
      f0      :     0.000430  f :     0.004241
      f+1     :     0.000708
      f-1     :     0.000096
      f+2     :     0.000737
      f-2     :     0.000186
      f+3     :     0.000945
      f-3     :     0.001140

  1 C s       :     2.660836  s :     2.660836
      pz      :     0.875461  p :     2.601465
      px      :     0.812132
      py      :     0.913873
      dz2     :     0.121933  d :     0.936150
      dxz     :     0.144182
      dyz     :     0.129731
      dx2y2   :     0.244620
      dxy     :     0.295683
      f0      :     0.008155  f :     0.086024
      f+1     :     0.010742
      f-1     :     0.004794
      f+2     :     0.012562
      f-2     :     0.008509
      f+3     :     0.017004
      f-3     :     0.024257

  2 C s       :     2.738514  s :     2.738514
      pz      :     0.787223  p :     2.597788
      px      :     0.868756
      py      :     0.941808
      dz2     :     0.035090  d :     0.386360
      dxz     :     0.053596
      dyz     :     0.083117
      dx2y2   :     0.129598
      dxy     :     0.084958
      f0      :     0.002724  f :     0.022603
      f+1     :     0.001806
      f-1     :     0.002359
      f+2     :     0.002760
      f-2     :     0.003640
      f+3     :     0.004169
      f-3     :     0.005146

  3 H s       :     0.657293  s :     0.657293
      pz      :     0.117020  p :     0.237911
      px      :     0.051552
      py      :     0.069339
      dz2     :     0.008759  d :     0.024443
      dxz     :     0.005755
      dyz     :     0.007768
      dx2y2   :     0.001059
      dxy     :     0.001101

  4 H s       :     0.693095  s :     0.693095
      pz      :     0.093547  p :     0.270872
      px      :     0.074804
      py      :     0.102521
      dz2     :     0.006843  d :     0.030915
      dxz     :     0.004130
      dyz     :     0.007199
      dx2y2   :     0.006411
      dxy     :     0.006332

  5 H s       :     0.734271  s :     0.734271
      pz      :     0.089315  p :     0.292147
      px      :     0.083467
      py      :     0.119365
      dz2     :     0.004518  d :     0.031688
      dxz     :     0.001698
      dyz     :     0.008932
      dx2y2   :     0.008285
      dxy     :     0.008255

  6 H s       :     0.722249  s :     0.722249
      pz      :     0.102722  p :     0.294038
      px      :     0.113656
      py      :     0.077661
      dz2     :     0.006661  d :     0.030048
      dxz     :     0.008427
      dyz     :     0.003451
      dx2y2   :     0.005710
      dxy     :     0.005799


SPIN
  0 O s       :     0.014158  s :     0.014158
      pz      :     0.650594  p :     0.812252
      px      :     0.069842
      py      :     0.091816
      dz2     :     0.002788  d :     0.015528
      dxz     :     0.007641
      dyz     :     0.002534
      dx2y2   :    -0.000501
      dxy     :     0.003066
      f0      :     0.000026  f :     0.000004
      f+1     :    -0.000029
      f-1     :     0.000029
      f+2     :     0.000004
      f-2     :     0.000030
      f+3     :    -0.000044
      f-3     :    -0.000011

  1 C s       :    -0.004216  s :    -0.004216
      pz      :     0.002029  p :    -0.020595
      px      :    -0.010465
      py      :    -0.012159
      dz2     :     0.039257  d :     0.207964
      dxz     :     0.064665
      dyz     :     0.078138
      dx2y2   :     0.023685
      dxy     :     0.002220
      f0      :     0.004727  f :     0.023710
      f+1     :     0.002563
      f-1     :     0.000427
      f+2     :     0.006065
      f-2     :     0.003202
      f+3     :     0.002606
      f-3     :     0.004120

  2 C s       :     0.014087  s :     0.014087
      pz      :     0.425282  p :     0.666209
      px      :     0.198897
      py      :     0.042030
      dz2     :    -0.000511  d :    -0.002037
      dxz     :    -0.001683
      dyz     :     0.003793
      dx2y2   :    -0.001566
      dxy     :    -0.002069
      f0      :    -0.000255  f :    -0.000550
      f+1     :     0.000281
      f-1     :    -0.000061
      f+2     :     0.000049
      f-2     :    -0.000043
      f+3     :    -0.000334
      f-3     :    -0.000186

  3 H s       :     0.088157  s :     0.088157
      pz      :     0.002674  p :     0.012430
      px      :     0.007516
      py      :     0.002240
      dz2     :    -0.000132  d :    -0.000461
      dxz     :    -0.000141
      dyz     :    -0.000215
      dx2y2   :     0.000029
      dxy     :    -0.000003

  4 H s       :     0.014924  s :     0.014924
      pz      :    -0.000297  p :     0.000344
      px      :     0.001374
      py      :    -0.000733
      dz2     :    -0.000030  d :    -0.000403
      dxz     :    -0.000104
      dyz     :    -0.000029
      dx2y2   :    -0.000024
      dxy     :    -0.000216

  5 H s       :    -0.012804  s :    -0.012804
      pz      :     0.051195  p :     0.081323
      px      :     0.023011
      py      :     0.007116
      dz2     :     0.002558  d :     0.011207
      dxz     :     0.000100
      dyz     :     0.004969
      dx2y2   :     0.000489
      dxy     :     0.003090

  6 H s       :    -0.010663  s :    -0.010663
      pz      :     0.050214  p :     0.079271
      px      :     0.023824
      py      :     0.005233
      dz2     :     0.006213  d :     0.010160
      dxz     :     0.000882
      dyz     :     0.000203
      dx2y2   :     0.001852
      dxy     :     0.001010



                      *****************************
                      * MAYER POPULATION ANALYSIS *
                      *****************************

  NA   - Mulliken gross atomic population
  ZA   - Total nuclear charge
  QA   - Mulliken gross atomic charge
  VA   - Mayer's total valence
  BVA  - Mayer's bonded valence
  FA   - Mayer's free valence

  ATOM       NA         ZA         QA         VA         BVA        FA
  0 O      8.3398     8.0000    -0.3398     1.8256     1.0866     0.7390
  1 C      5.9107     6.0000     0.0893     3.4815     3.4674     0.0141
  2 C      6.6337     6.0000    -0.6337     3.4839     2.7201     0.7638
  3 H      0.8227     1.0000     0.1773     1.0058     0.9883     0.0176
  4 H      0.8008     1.0000     0.1992     1.0499     1.0489     0.0010
  5 H      0.7165     1.0000     0.2835     0.9343     0.9340     0.0003
  6 H      0.7758     1.0000     0.2242     0.9449     0.9446     0.0003

  Mayer bond orders larger than 0.100000
B(  0-O ,  1-C ) :   0.9007 B(  1-C ,  2-C ) :   0.7208 B(  1-C ,  3-H ) :   0.9099 
B(  1-C ,  4-H ) :   1.0074 B(  2-C ,  5-H ) :   0.9363 B(  2-C ,  6-H ) :   0.9866 


-------
TIMINGS
-------

Total SCF time: 0 days 0 hours 0 min 7 sec 

Total time                  ....       7.510 sec
Sum of individual times     ....       7.475 sec  ( 99.5%)

SCF preparation             ....       1.609 sec  ( 21.4%)
Fock matrix formation       ....       4.545 sec  ( 60.5%)
  Startup                   ....       0.077 sec  (  1.7% of F)
  Split-RI-J                ....       0.505 sec  ( 11.1% of F)
  Chain of spheres X        ....       2.488 sec  ( 54.7% of F)
  XC integration            ....       1.173 sec  ( 25.8% of F)
    XC Preparation          ....       0.000 sec  (  0.0% of XC)
    Basis function eval.    ....       0.063 sec  (  5.3% of XC)
    Density eval.           ....       0.219 sec  ( 18.7% of XC)
    XC-Functional eval.     ....       0.015 sec  (  1.3% of XC)
    XC-Potential eval.      ....       0.281 sec  ( 24.0% of XC)
Diagonalization             ....       0.000 sec  (  0.0%)
Density matrix formation    ....       0.160 sec  (  2.1%)
Total Energy calculation    ....       0.147 sec  (  2.0%)
Population analysis         ....       0.038 sec  (  0.5%)
Orbital Transformation      ....       0.083 sec  (  1.1%)
[...]
[1741609004.107204] [ohm:3280177:0]        ib_iface.c:1059 UCX  ERROR ibv_create_cq(cqe=256) failed: Connection timed out
[1741609004.108048] [ohm:3280137:0]        ib_iface.c:1059 UCX  ERROR ibv_create_cq(cqe=256) failed: Connection timed out
[1741609004.113223] [ohm:3280130:0]        ib_iface.c:1059 UCX  ERROR ibv_create_cq(cqe=256) failed: Connection timed out
[1741609004.113608] [ohm:3280111:0]        ib_iface.c:1059 UCX  ERROR ibv_create_cq(cqe=256) failed: Connection timed out
[1741609004.114437] [ohm:3280172:0]        ib_iface.c:1059 UCX  ERROR ibv_create_cq(cqe=256) failed: Connection timed out
[1741609004.116327] [ohm:3280065:0]        ib_iface.c:1059 UCX  ERROR ibv_create_cq(cqe=256) failed: Connection timed out
[1741609004.116429] [ohm:3280198:0]        ib_iface.c:1059 UCX  ERROR ibv_create_cq(cqe=256) failed: Connection timed out
[1741609004.116551] [ohm:3280089:0]        ib_iface.c:1059 UCX  ERROR ibv_create_cq(cqe=256) failed: Connection timed out
[1741609004.117655] [ohm:3280194:0]        ib_iface.c:1059 UCX  ERROR ibv_create_cq(cqe=256) failed: Connection timed out
[1741609004.117654] [ohm:3280125:0]        ib_iface.c:1059 UCX  ERROR ibv_create_cq(cqe=256) failed: Connection timed out


           ************************************************************
           *        Program running with 64 parallel MPI-processes    *
           *              working on a common directory               *
           ************************************************************

------------------------------------------------------------------------------
                              ORCA PROPERTY CALCULATIONS
------------------------------------------------------------------------------

GBWName                                 ... orca.gbw
Number of atoms                         ...      7
Number of basis functions               ...    182
Max core memory                         ...   1024 MB

Electric properties:
Dipole moment                           ... YES
Quadrupole moment                       ...  NO
Static polarizability (Dipole/Dipole)   ...  NO
Static polarizability (Dipole/Quad.)    ...  NO
Static polarizability (Quad./Quad.)     ...  NO
Static polarizability (Velocity)        ...  NO

Atomic electric properties:
Dipole moment                           ...  NO
Quadrupole moment                       ...  NO
Static polarizability                   ...  NO

Choice of electric origin               ... Center of mass
Position of electric origin             ...     0.784507     0.119330     0.139228

General magnetic properties:
Magnetizability                         ...  NO

EPR properties:
g-Tensor (aka g-matrix)                 ...  NO
Zero-Field splitting spin-orbit         ...  NO
Zero-field splitting spin-spin          ...  NO
Hyperfine couplings                     ...  NO (   0 nuclei)
Quadrupole couplings                    ...  NO (   0 nuclei)
Contact density                         ...  NO (   0 nuclei)

NMR properties:
Chemical shifts                         ...  NO (   0 nuclei)
Spin-rotation constants                 ...  NO (   0 nuclei)
Spin-spin couplings                     ...  NO (   0 nuclei,    0 pairs)

Choice of magnetic origin               ... GIAO
Position of magnetic origin             ...     0.000000     0.000000     0.000000

Properties with geometric perturbations:
SCF Hessian                             ...  NO
IR spectrum                             ...  NO
VCD spectrum                            ...  NO
X-ray spectroscopy properties:
SCF XES/XAS/RIXS spectra                ...  NO


-------------
DIPOLE MOMENT
-------------

Method             : SCF
Type of density    : Electron Density
Multiplicity       :   3
Irrep              :   0
Energy             :  -153.7813473498174233 Eh
Relativity type    : 
Basis              : AO
                                X                 Y                 Z
Electronic contribution:     -2.473832689       0.353158264      -0.239264989
Nuclear contribution   :      3.205459058      -0.258543717       0.436762249
                        -----------------------------------------
Total Dipole Moment    :      0.731626370       0.094614547       0.197497260
                        -----------------------------------------
Magnitude (a.u.)       :      0.763697731
Magnitude (Debye)      :      1.941165366



--------------------
Rotational spectrum 
--------------------
 
Rotational constants in cm-1:             1.440015             0.350700             0.308492 
Rotational constants in MHz :         43170.569876         10513.724204          9248.345242 

Dipole components along the rotational axes: 
x,y,z [a.u.] :    -0.607203     0.452052     0.100931 
x,y,z [Debye]:    -1.543388     1.149026     0.256547 

 

-------------
DIPOLE MOMENT
-------------

Method             : TDA/CIS
Type of density    : Electron Density
Level              : Relaxed density
State              :   2
Multiplicity       :   3
Irrep              :   0
Energy             :     0.0000000000000000 Eh
Relativity type    : 
Basis              : AO
                                X                 Y                 Z
Electronic contribution:     -2.543008840       0.389480718      -0.251014079
Nuclear contribution   :      3.205459058      -0.258543717       0.436762249
                        -----------------------------------------
Total Dipole Moment    :      0.662450218       0.130937001       0.185748170
                        -----------------------------------------
Magnitude (a.u.)       :      0.700347894
Magnitude (Debye)      :      1.780142876



--------------------
Rotational spectrum 
--------------------
 
Rotational constants in cm-1:             1.440015             0.350700             0.308492 
Rotational constants in MHz :         43170.569876         10513.724204          9248.345242 

Dipole components along the rotational axes: 
x,y,z [a.u.] :    -0.528579     0.449844     0.093440 
x,y,z [Debye]:    -1.343542     1.143413     0.237505 

 

Dipole moment calculation done in   0.0 sec 

Maximum memory used throughout the entire PROP-calculation: 7.4 MB
[1741609005.823813] [ohm:3280393:0]        ib_iface.c:1059 UCX  ERROR ibv_create_cq(cqe=256) failed: Connection timed out
[1741609005.828493] [ohm:3280395:0]        ib_iface.c:1059 UCX  ERROR ibv_create_cq(cqe=256) failed: Connection timed out
[1741609005.837080] [ohm:3280399:0]        ib_iface.c:1059 UCX  ERROR ibv_create_cq(cqe=256) failed: Connection timed out
[1741609005.843127] [ohm:3280401:0]        ib_iface.c:1059 UCX  ERROR ibv_create_cq(cqe=256) failed: Connection timed out
[1741609005.846505] [ohm:3280394:0]        ib_iface.c:1059 UCX  ERROR ibv_create_cq(cqe=256) failed: Connection timed out
[1741609005.851933] [ohm:3280403:0]        ib_iface.c:1059 UCX  ERROR ibv_create_cq(cqe=256) failed: Connection timed out
[1741609005.853437] [ohm:3280397:0]        ib_iface.c:1059 UCX  ERROR ibv_create_cq(cqe=256) failed: Connection timed out
[1741609005.855757] [ohm:3280400:0]        ib_iface.c:1059 UCX  ERROR ibv_create_cq(cqe=256) failed: Connection timed out
[1741609005.869520] [ohm:3280392:0]        ib_iface.c:1059 UCX  ERROR ibv_create_cq(cqe=256) failed: Connection timed out
[1741609005.876068] [ohm:3280398:0]        ib_iface.c:1059 UCX  ERROR ibv_create_cq(cqe=256) failed: Connection timed out
[1741609005.908318] [ohm:3280451:0]        ib_iface.c:1059 UCX  ERROR ibv_create_cq(cqe=256) failed: Connection timed out
[1741609005.929785] [ohm:3280407:0]        ib_iface.c:1059 UCX  ERROR ibv_create_cq(cqe=256) failed: Connection timed out
[1741609005.931520] [ohm:3280409:0]        ib_iface.c:1059 UCX  ERROR ibv_create_cq(cqe=256) failed: Connection timed out
[1741609005.934251] [ohm:3280454:0]        ib_iface.c:1059 UCX  ERROR ibv_create_cq(cqe=256) failed: Connection timed out
[1741609005.948686] [ohm:3280414:0]        ib_iface.c:1059 UCX  ERROR ibv_create_cq(cqe=256) failed: Connection timed out
[1741609005.958952] [ohm:3280449:0]        ib_iface.c:1059 UCX  ERROR ibv_create_cq(cqe=256) failed: Connection timed out
[1741609005.959638] [ohm:3280442:0]        ib_iface.c:1059 UCX  ERROR ibv_create_cq(cqe=256) failed: Connection timed out
[1741609005.965469] [ohm:3280402:0]        ib_iface.c:1059 UCX  ERROR ibv_create_cq(cqe=256) failed: Connection timed out
[1741609005.970676] [ohm:3280416:0]        ib_iface.c:1059 UCX  ERROR ibv_create_cq(cqe=256) failed: Connection timed out
[1741609005.971322] [ohm:3280456:0]        ib_iface.c:1059 UCX  ERROR ibv_create_cq(cqe=256) failed: Connection timed out
[1741609005.976786] [ohm:3280432:0]        ib_iface.c:1059 UCX  ERROR ibv_create_cq(cqe=256) failed: Connection timed out
[1741609005.992274] [ohm:3280461:0]        ib_iface.c:1059 UCX  ERROR ibv_create_cq(cqe=256) failed: Connection timed out
[1741609005.996080] [ohm:3280458:0]        ib_iface.c:1059 UCX  ERROR ibv_create_cq(cqe=256) failed: Connection timed out
[1741609006.000884] [ohm:3280445:0]        ib_iface.c:1059 UCX  ERROR ibv_create_cq(cqe=256) failed: Connection timed out
[1741609006.002865] [ohm:3280424:0]        ib_iface.c:1059 UCX  ERROR ibv_create_cq(cqe=256) failed: Connection timed out
[1741609006.003151] [ohm:3280460:0]        ib_iface.c:1059 UCX  ERROR ibv_create_cq(cqe=256) failed: Connection timed out
[1741609006.004294] [ohm:3280423:0]        ib_iface.c:1059 UCX  ERROR ibv_create_cq(cqe=256) failed: Connection timed out
[1741609006.010002] [ohm:3280396:0]        ib_iface.c:1059 UCX  ERROR ibv_create_cq(cqe=256) failed: Connection timed out
[1741609006.010598] [ohm:3280462:0]        ib_iface.c:1059 UCX  ERROR ibv_create_cq(cqe=256) failed: Connection timed out
[1741609006.012195] [ohm:3280457:0]        ib_iface.c:1059 UCX  ERROR ibv_create_cq(cqe=256) failed: Connection timed out
[1741609006.021884] [ohm:3280499:0]        ib_iface.c:1059 UCX  ERROR ibv_create_cq(cqe=256) failed: Connection timed out
[1741609006.024073] [ohm:3280459:0]        ib_iface.c:1059 UCX  ERROR ibv_create_cq(cqe=256) failed: Connection timed out
[1741609006.041380] [ohm:3280439:0]        ib_iface.c:1059 UCX  ERROR ibv_create_cq(cqe=256) failed: Connection timed out
[1741609006.051763] [ohm:3280530:0]        ib_iface.c:1059 UCX  ERROR ibv_create_cq(cqe=256) failed: Connection timed out
[1741609006.052314] [ohm:3280473:0]        ib_iface.c:1059 UCX  ERROR ibv_create_cq(cqe=256) failed: Connection timed out
[1741609006.054686] [ohm:3280485:0]        ib_iface.c:1059 UCX  ERROR ibv_create_cq(cqe=256) failed: Connection timed out
[1741609006.059029] [ohm:3280486:0]        ib_iface.c:1059 UCX  ERROR ibv_create_cq(cqe=256) failed: Connection timed out
[1741609006.069742] [ohm:3280507:0]        ib_iface.c:1059 UCX  ERROR ibv_create_cq(cqe=256) failed: Connection timed out
[1741609006.073913] [ohm:3280472:0]        ib_iface.c:1059 UCX  ERROR ibv_create_cq(cqe=256) failed: Connection timed out
[1741609006.074625] [ohm:3280425:0]        ib_iface.c:1059 UCX  ERROR ibv_create_cq(cqe=256) failed: Connection timed out
[1741609006.078250] [ohm:3280498:0]        ib_iface.c:1059 UCX  ERROR ibv_create_cq(cqe=256) failed: Connection timed out
[1741609006.085264] [ohm:3280481:0]        ib_iface.c:1059 UCX  ERROR ibv_create_cq(cqe=256) failed: Connection timed out
[1741609006.086963] [ohm:3280464:0]        ib_iface.c:1059 UCX  ERROR ibv_create_cq(cqe=256) failed: Connection timed out
[1741609006.093503] [ohm:3280463:0]        ib_iface.c:1059 UCX  ERROR ibv_create_cq(cqe=256) failed: Connection timed out
[1741609006.100943] [ohm:3280538:0]        ib_iface.c:1059 UCX  ERROR ibv_create_cq(cqe=256) failed: Connection timed out
[1741609006.106101] [ohm:3280496:0]        ib_iface.c:1059 UCX  ERROR ibv_create_cq(cqe=256) failed: Connection timed out
[1741609006.110116] [ohm:3280520:0]        ib_iface.c:1059 UCX  ERROR ibv_create_cq(cqe=256) failed: Connection timed out
[1741609006.111595] [ohm:3280505:0]        ib_iface.c:1059 UCX  ERROR ibv_create_cq(cqe=256) failed: Connection timed out
[1741609006.112788] [ohm:3280526:0]        ib_iface.c:1059 UCX  ERROR ibv_create_cq(cqe=256) failed: Connection timed out
[1741609006.128515] [ohm:3280491:0]        ib_iface.c:1059 UCX  ERROR ibv_create_cq(cqe=256) failed: Connection timed out
[1741609006.128828] [ohm:3280477:0]        ib_iface.c:1059 UCX  ERROR ibv_create_cq(cqe=256) failed: Connection timed out
[1741609006.129504] [ohm:3280511:0]        ib_iface.c:1059 UCX  ERROR ibv_create_cq(cqe=256) failed: Connection timed out
[1741609006.133228] [ohm:3280542:0]        ib_iface.c:1059 UCX  ERROR ibv_create_cq(cqe=256) failed: Connection timed out
[1741609006.133423] [ohm:3280428:0]        ib_iface.c:1059 UCX  ERROR ibv_create_cq(cqe=256) failed: Connection timed out
[1741609006.135888] [ohm:3280453:0]        ib_iface.c:1059 UCX  ERROR ibv_create_cq(cqe=256) failed: Connection timed out
[1741609006.138033] [ohm:3280517:0]        ib_iface.c:1059 UCX  ERROR ibv_create_cq(cqe=256) failed: Connection timed out
[1741609006.138512] [ohm:3280514:0]        ib_iface.c:1059 UCX  ERROR ibv_create_cq(cqe=256) failed: Connection timed out
[1741609006.138879] [ohm:3280467:0]        ib_iface.c:1059 UCX  ERROR ibv_create_cq(cqe=256) failed: Connection timed out
[1741609006.139253] [ohm:3280494:0]        ib_iface.c:1059 UCX  ERROR ibv_create_cq(cqe=256) failed: Connection timed out
[1741609006.141732] [ohm:3280404:0]        ib_iface.c:1059 UCX  ERROR ibv_create_cq(cqe=256) failed: Connection timed out
[1741609006.142356] [ohm:3280465:0]        ib_iface.c:1059 UCX  ERROR ibv_create_cq(cqe=256) failed: Connection timed out
[1741609006.142354] [ohm:3280455:0]        ib_iface.c:1059 UCX  ERROR ibv_create_cq(cqe=256) failed: Connection timed out
[1741609006.143046] [ohm:3280532:0]        ib_iface.c:1059 UCX  ERROR ibv_create_cq(cqe=256) failed: Connection timed out
[1741609006.143598] [ohm:3280466:0]        ib_iface.c:1059 UCX  ERROR ibv_create_cq(cqe=256) failed: Connection timed out

--------------------------------
SUGGESTED CITATIONS FOR THIS RUN
--------------------------------

Below you find a list of papers that are relevant to this ORCA run
We neither can nor want to force you to cite these papers, but we appreciate if you do
You receive ORCA, which is the product of decades of hard work by many enthusiastic individuals, for free
The only thing we kindly ask in return is that you cite our papers,
We deeply appreciate it, if you show your appreciation for ORCA by not just citing the generic ORCA reference.

Please note that relegating all ORCA citations to the supporting information does *not* help us.
SI sections are not indexed - citations you put there will not count into any citation statistics
But we need these citations in order to attract the funding resources that allow us to do what we are doing

Therefore, if you are a happy ORCA user, please consider citing a few of the papers listed below in the main body of your paper

In addition to the list printed below, the program has created the file orca.bibtex that contains the list in bibtex format
You can import this file easily into all common literature databanks and citation aid programs


List of essential papers. We consider these as the minimum necessary citations

  1. Neese,F.
     Software update: the ORCA program system, version 5.0
     WIRES Comput. Molec. Sci., 2022 12(1)e1606
     doi.org/10.1002/wcms.1606

List of papers to cite with high priority. The work reported in these papers was absolutely
necessary for this run to complete.
Our perspective: the developers of density functionals and basis sets usually get cited in chemistry papers
Good! But without the algorithms to do something with them, the functionals or basis sets would not do anything.
Hence, in our opinion, the algorithm design and method developments papers are equally worthy of getting cited

  1. Neese,F.; Olbrich,G.
     Efficient use of the resolution of the identity approximation in time-dependent density functional calculations with hybrid density functionals
     Chem. Phys. Lett., 2002 362 170-178
     doi.org/10.1016/s0009-2614(02)01053-9
  2. Neese,F.
     An improvement of the resolution of the identity approximation for the formation of the Coulomb matrix
     J. Comp. Chem., 2003 24(14)1740-1747
     doi.org/10.1002/jcc.10318
  3. Neese,F.; Wennmohs,F.; Hansen,A.; Becker,U.
     Efficient, approximate and parallel Hartree-Fock and hybrid DFT calculations. A 'chain-of-spheres' algorithm for the Hartree-Fock exchange
     Chem. Phys., 2009 356(1-3)98-109
     doi.org/10.1016/j.chemphys.2008.10.036
  4. Petrenko,T.; Kossmann,S.; Neese,F.
     Efficient time-dependent density functional theory approximations for hybrid density functionals: Analytical gradients and parallelization
     J. Chem. Phys., 2011 134 054116
     doi.org/10.1063/1.3533441
  5. Helmich-Paris,B.; de Souza,B.; Neese,F.; Izsák,R.
     An improved chain of spheres for exchange algorithm
     J. Chem. Phys., 2021 155 104109
     doi.org/doi: 10.1063/5.0058766.
  6. Neese,F.
     The SHARK Integral Generation and Digestion System
     J. Comp. Chem., 2022  1-16
     doi.org/10.1002/jcc.26942
  7. Lehtola,S.; Steigemann,C.; Oliveira,M.; Marques,M.
     Recent developments in Libxc - A comprehensive library of functionals for density functional theory
     Software X, 2018 7 
     doi.org/10.1016/j.softx.2017.11.002
  8. Grimme,S.; Antony,J.; Ehrlich,S.; Krieg,H.
     A consistent and accurate ab initio parametrization of density functional dispersion correction (DFT-D) for the 94 elements H-Pu
     J. Chem. Phys., 2010 132 154104-XXXX
     doi.org/10.1063/1.3382344
  9. Grimme,S.; Ehrlich,S.; Goerigk,L.
     Effect of the damping function in dispersion corrected density functional theory
     J. Comput. Chem., 2011 32(7)1456-1465
     doi.org/10.1002/jcc.21759

List of suggested additional citations. These are papers that are important in the 'surrounding' of 
of this run, or papers that preceded the highly important papers. If you like your results we are grateful for a citation.

  1. Izsak,R.; Neese,F.
     An overlap fitted chain of spheres exchange method
     J. Chem. Phys., 2011 135 144105
     doi.org/10.1063/1.3646921
  2. Izsak,R.; Hansen,A.; Neese,F.
     The resolution of identity and chain of spheres approximations for the LPNO-CCSD singles Fock term
     Molec. Phys., 2012 110 2413-2417
     doi.org/10.1080/00268976.2012.687466
  3. Neese,F.
     The ORCA program system
     WIRES Comput. Molec. Sci., 2012 2(1)73-78
     doi.org/10.1002/wcms.81
  4. Izsak,R.; Neese,F.; Klopper,W.
     Robust fitting techniques in the chain of spheres approximation to the Fock exchange: The role of the complementary space
     J. Chem. Phys., 2013 139 
     doi.org/10.1063/1.4819264
  5. Neese,F.
     Software update: the ORCA program system, version 4.0
     WIRES Comput. Molec. Sci., 2018 8(1)1-6
     doi.org/10.1002/wcms.1327
  6. Neese,F.; Wennmohs,F.; Becker,U.; Riplinger,C.
     The ORCA quantum chemistry program package
     J. Chem. Phys., 2020 152 Art. No. L224108
     doi.org/10.1063/5.0004608

List of optional additional citations

  1. Neese,F.
     Approximate second-order SCF convergence for spin unrestricted wavefunctions
     Chem. Phys. Lett., 2000 325(1-3)93-98
     doi.org/10.1016/s0009-2614(00)00662-x

Timings for individual modules:

Sum of individual times          ...       24.273 sec (=   0.405 min)
Startup calculation              ...        2.493 sec (=   0.042 min)  10.3 %
SCF iterations                   ...       10.132 sec (=   0.169 min)  41.7 %
Property integrals               ...        2.125 sec (=   0.035 min)   8.8 %
Property calculations            ...        1.997 sec (=   0.033 min)   8.2 %
CIS module                       ...        7.525 sec (=   0.125 min)  31.0 %
                             ****ORCA TERMINATED NORMALLY****
TOTAL RUN TIME: 0 days 0 hours 0 minutes 26 seconds 349 msec
