7
Properties=species:S:1:pos:R:3:momenta:R:3:forces:R:3 Coordinates=T from=T ORCA-job=T orca=T E=T -153.851947508303=T energy=-4183.5339613010465 free_energy=-4183.5339613010465 stress="-2.060873483587369e-06 2.7384316360097408e-06 4.279202020968958e-06 2.7384316360097408e-06 -1.843758910455527e-06 1.4503973438984637e-08 4.279202020968958e-06 1.4503973438984637e-08 -3.2212248051758854e-06" pbc="F F F"
O       -0.21269535       0.91047059      -0.61133757       0.01537372      -1.49059623       0.32636993       0.72182209       0.78739602      -0.00640039
C        0.64215791       0.06700615       0.11221319      -0.26944458       1.30859977      -1.12731601      -2.59068706      -1.16293398       0.24308919
C       -0.28390903      -1.03837276       0.58425812       0.55139144      -0.00309132       0.38241772       1.30870686      -0.70238567      -0.39180225
H        1.20474893       0.60595506       0.86262316      -0.01051779       0.15831774       0.30998573      -0.05340850       0.38913420       0.24986660
H        1.32989753      -0.39866615      -0.53236740       0.07231923       0.31375985       0.18492004       1.41577316      -0.10262504      -1.05581073
H       -1.20783372      -0.81601938       0.99189375      -0.08665678      -0.11479702      -0.07317122      -1.09587314       0.61369593       0.78407443
H       -0.25196755      -2.01144013       0.09574221      -0.27246525      -0.17219280      -0.00320618       0.29366661       0.17771855       0.17698315
