
                                 *****************
                                 * O   R   C   A *
                                 *****************

                                            #,                                       
                                            ###                                      
                                            ####                                     
                                            #####                                    
                                            ######                                   
                                           ########,                                 
                                     ,,################,,,,,                         
                               ,,#################################,,                 
                          ,,##########################################,,             
                       ,#########################################, ''#####,          
                    ,#############################################,,   '####,        
                  ,##################################################,,,,####,       
                ,###########''''           ''''###############################       
              ,#####''   ,,,,##########,,,,          '''####'''          '####       
            ,##' ,,,,###########################,,,                        '##       
           ' ,,###''''                  '''############,,,                           
         ,,##''                                '''############,,,,        ,,,,,,###''
      ,#''                                            '''#######################'''  
     '                                                          ''''####''''         
             ,#######,   #######,   ,#######,      ##                                
            ,#'     '#,  ##    ##  ,#'     '#,    #''#        ,####,   ,####,        
            ##       ##  ##   ,#'  ##            #'  '#       #'       #'  '#        
            ##       ##  #######   ##           ,######,      #####,   #    #        
            '#,     ,#'  ##    ##  '#,     ,#' ,#      #,     #,   #   #,  ,#        
             '#######'   ##     ##  '#######'  #'      '#     '####' # '####'        



                #########################################################
                #                        -***-                          #
                #          Department of theory and spectroscopy        #
                #                                                       #
                #                      Frank Neese                      #
                #                                                       #
                #     Directorship, Architecture, Infrastructure        #
                #                    SHARK, DRIVERS                     #
                #        Core code/Algorithms in most modules           #
                #                                                       #
                #        Max Planck Institute fuer Kohlenforschung      #
                #                Kaiser Wilhelm Platz 1                 #
                #                 D-45470 Muelheim/Ruhr                 #
                #                      Germany                          #
                #                                                       #
                #                  All rights reserved                  #
                #                        -***-                          #
                #########################################################


                         Program Version 6.0.0  -   RELEASE  -


 With contributions from (in alphabetic order):
   Daniel Aravena         : Magnetic Suceptibility
   Michael Atanasov       : Ab Initio Ligand Field Theory (pilot matlab implementation)
   Alexander A. Auer      : GIAO ZORA, VPT2 properties, NMR spectrum
   Ute Becker             : All parallelization in ORCA, NUMFREQ, NUMCALC
   Giovanni Bistoni       : ED, misc. LED, open-shell LED, HFLD
   Martin Brehm           : Molecular dynamics
   Dmytro Bykov           : pre 5.0 version of the SCF Hessian
   Marcos Casanova-Páez   : Triplet and SCS-CIS(D). UHF-(DLPNO)-IP/EA/STEOM-CCSD. UHF-CVS-IP/STEOM-CCSD
   Vijay G. Chilkuri      : MRCI spin determinant printing, contributions to CSF-ICE
   Pauline Colinet        : FMM embedding
   Dipayan Datta          : RHF DLPNO-CCSD density
   Achintya Kumar Dutta   : EOM-CC, STEOM-CC
   Nicolas Foglia         : Exact transition moments, OPA infrastructure, MCD improvements
   Dmitry Ganyushin       : Spin-Orbit,Spin-Spin,Magnetic field MRCI
   Miquel Garcia          : C-PCM and meta-GGA Hessian, CCSD/C-PCM, Gaussian charge scheme
   Tiago L. C. Gouveia    : GS-ROHF, GS-ROCIS
   Yang Guo               : DLPNO-NEVPT2, F12-NEVPT2, CIM, IAO-localization
   Andreas Hansen         : Spin unrestricted coupled pair/coupled cluster methods
   Ingolf Harden          : AUTO-CI MPn and infrastructure 
   Benjamin Helmich-Paris : MC-RPA, TRAH-(SCF,CASSCF), AVAS, COSX integrals, SCF dyn. polar.
   Lee Huntington         : MR-EOM, pCC
   Robert Izsak           : Overlap fitted RIJCOSX, COSX-SCS-MP3, EOM
   Riya Kayal             : Wick's Theorem for AUTO-CI, AUTO-CI UHF-CCSDT
   Emily Kempfer          : AUTO-CI, RHF CISDT and CCSDT
   Christian Kollmar      : KDIIS, OOCD, Brueckner-CCSD(T), CCSD density, CASPT2, CASPT2-K, improved NEVPT2
   Axel Koslowski         : Symmetry handling
   Simone Kossmann        : Meta GGA functionals, TD-DFT gradient, OOMP2, (MP2 Hessian; deprecated post 5.0)
   Lucas Lang             : DCDCAS
   Marvin Lechner         : AUTO-CI (C++ implementation), FIC-MRCC
   Spencer Leger          : CASSCF response
   Dagmar Lenk            : GEPOL surface, SMD, ORCA-2-JSON
   Dimitrios Liakos       : Extrapolation schemes; Compound Job, initial MDCI parallelization
   Dimitrios Manganas     : Further ROCIS development; embedding schemes. LFT, Crystal Embedding
   Dimitrios Pantazis     : SARC Basis sets
   Anastasios Papadopoulos: AUTO-CI, single reference methods and gradients
   Taras Petrenko         : pre 6.0 DFT Hessian and TD-DFT gradient, (ASA, deprecated), ECA, 1-Electron XAS/XES, NRVS
   Peter Pinski           : DLPNO-MP2, DLPNO-MP2 Gradient
   Christoph Reimann      : Effective Core Potentials
   Marius Retegan         : Local ZFS, SOC
   Christoph Riplinger    : Optimizer, TS searches, QM/MM, DLPNO-CCSD(T), (RO)-DLPNO pert. Triples
   Michael Roemelt        : Original ROCIS implementation
   Masaaki Saitow         : Open-shell DLPNO-CCSD energy and density
   Barbara Sandhoefer     : DKH picture change effects
   Kantharuban Sivalingam : CASSCF convergence/infrastructure, NEVPT2 and variants, FIC-MRCI
   Bernardo de Souza      : ESD, SOC TD-DFT
   Georgi Stoychev        : AutoAux, RI-MP2 NMR, DLPNO-MP2 response, X2C
   Van Anh Tran           : RI-MP2 g-tensors
   Willem Van den Heuvel  : Paramagnetic NMR
   Zikuan Wang            : NOTCH, Electric field optimization 
   Frank Wennmohs         : Technical directorship and infrastructure
   Hang Xu                : AUTO-CI-Response properties 


 We gratefully acknowledge several colleagues who have allowed us to
 interface, adapt or use parts of their codes:
   Stefan Grimme, W. Hujo, H. Kruse, P. Pracht,  : VdW corrections, initial TS optimization,
                  C. Bannwarth, S. Ehlert,         DFT functionals, gCP, sTDA/sTD-DF
                  L. Wittmann, M. Mueller
   Ed Valeev, F. Pavosevic, A. Kumar             : LibInt (2-el integral package), F12 methods
   Garnet Chan, S. Sharma, J. Yang, R. Olivares  : DMRG
   Ulf Ekstrom                                   : XCFun DFT Library
   Mihaly Kallay                                 : mrcc  (arbitrary order and MRCC methods)
   Frank Weinhold                                : gennbo (NPA and NBO analysis)
   Simon Mueller                                 : openCOSMO-RS
   Christopher J. Cramer and Donald G. Truhlar   : smd solvation model
   Lars Goerigk                                  : TD-DFT with DH, B97 family of functionals
   V. Asgeirsson, H. Jonsson                     : NEB implementation
   FAccTs GmbH                                   : IRC, NEB, NEB-TS, DLPNO-Multilevel, CI-OPT
                                                   MM, QMMM, 2- and 3-layer-ONIOM, Crystal-QMMM,
                                                   LR-CPCM, SF, NACMEs, symmetry and pop. for TD-DFT,
                                                   nearIR, NL-DFT gradient (VV10), updates on ESD,
                                                   ML-optimized integration grids, MBIS, APM,
                                                   GOAT, DOCKER, SOLVATOR, interface openCOSMO-RS
   S Lehtola, MJT Oliveira, MAL Marques          : LibXC Library
   Liviu Ungur et al                             : ANISO software


 Your calculation uses the libint2 library for the computation of 2-el integrals
 For citations please refer to: http://libint.valeyev.net

 Your ORCA version has been built with support for libXC version: 6.2.2
 For citations please refer to: https://libxc.gitlab.io

 This ORCA versions uses:
   CBLAS   interface :  Fast vector & matrix operations
   LAPACKE interface :  Fast linear algebra routines
   SCALAPACK package :  Parallel linear algebra routines
   Shared memory     :  Shared parallel matrices
   BLAS/LAPACK       :  OpenBLAS 0.3.27  USE64BITINT DYNAMIC_ARCH NO_AFFINITY Zen SINGLE_THREADED
        Core in use  :  Zen
   Copyright (c) 2011-2014, The OpenBLAS Project


Your calculation utilizes the atom-pairwise dispersion correction
with the Becke-Johnson damping scheme (D3BJ)


Warning: RI is on but no J-basis has been assigned. Assigning Def2/J (nothing to worry about!)
================================================================================

----- Orbital basis set information -----
Your calculation utilizes the basis: def2-TZVPPD
   F. Weigend and R. Ahlrichs, Phys. Chem. Chem. Phys. 7, 3297 (2005).
   D. Rappoport and F. Furche, J. Chem. Phys. 133, 134105 (2010)
   D. Rappoport, J. Chem. Phys. 155, 124102 (2021).

----- AuxJ basis set information -----
Your calculation utilizes the auxiliary basis: def2/J
   F. Weigend, Phys. Chem. Chem. Phys. 8, 1057 (2006).

================================================================================
                                        WARNINGS
                       Please study these warnings very carefully!
================================================================================

Using LibXC functional ID 531 : wB97M-V exchange-correlation functional
[ 1]  N. Mardirossian and M. Head-Gordon.,  J. Chem. Phys. 144, 214110 (2016)
Using LibXC functional ID 531 : wB97M-V exchange-correlation functional
[ 1]  N. Mardirossian and M. Head-Gordon.,  J. Chem. Phys. 144, 214110 (2016)

WARNING: B97M-V or wB97M-V functional requested.
  ===> : libXC variant has now been activated.
         Any manually given DFX/HFX/RangeSep scaling parameters are IGNORED!

Your calculation utilizes LibXC
 by S Lehtola, C Steigemann, MJT Oliveira & MAL Marques
Please cite in your paper:
 S Lehtola, C Steigemann, MJT Oliveira & MAL Marques, SoftwareX, 7, (2018), 1.
   


WARNING: your system is open-shell and RHF/RKS was chosen
  ===> : WILL SWITCH to UHF/UKS

INFO   : Checking CIS options ...

WARNING: CIS/ROCIS methods need fully converged wavefunctions
  ===> : Setting SCFConvForced true
         You can overwrite this default with %scf ConvForced false 


================================================================================
                                       INPUT FILE
================================================================================
NAME = orca.inp
|  1> ! EnGrad wB97M-D3BJ def2-TZVPPD 
|  2> %pal nprocs 8 end%pal nprocs 16 end 
|  3> %tddft 
|  4>  sf true 
|  5>  nroots 2 Iroot 2 end 
|  6> *xyz 0 3 
|  7> O   -0.04203479493523 0.76375715440419 -2.733868223e-05
|  8> C   0.75659663608506 -0.4679688496896 -9.00781978e-06
|  9> C   -0.73582949820762 -0.40291744410073 2.413574909e-05
| 10> H   1.27915537430958 -0.65357544463866 0.92589621879157
| 11> H   1.2791461706141 -0.6537322636894 -0.92589028708251
| 12> H   -1.26738591649997 -0.65197621816911 -0.91408769204524
| 13> H   -1.26744797136592 -0.65198693411669 0.91409397108909
| 14> *
| 15> 
| 16>                          ****END OF INPUT****
================================================================================

                     *******************************
                     * Energy+Gradient Calculation *
                     *******************************

---------------------------------
CARTESIAN COORDINATES (ANGSTROEM)
---------------------------------
  O     -0.042035    0.763757   -0.000027
  C      0.756597   -0.467969   -0.000009
  C     -0.735829   -0.402917    0.000024
  H      1.279155   -0.653575    0.925896
  H      1.279146   -0.653732   -0.925890
  H     -1.267386   -0.651976   -0.914088
  H     -1.267448   -0.651987    0.914094

----------------------------
CARTESIAN COORDINATES (A.U.)
----------------------------
  NO LB      ZA    FRAG     MASS         X           Y           Z
   0 O     8.0000    0    15.999   -0.079434    1.443292   -0.000052
   1 C     6.0000    0    12.011    1.429760   -0.884333   -0.000017
   2 C     6.0000    0    12.011   -1.390516   -0.761404    0.000046
   3 H     1.0000    0     1.008    2.417253   -1.235079    1.749690
   4 H     1.0000    0     1.008    2.417236   -1.235375   -1.749679
   5 H     1.0000    0     1.008   -2.395012   -1.232056   -1.727375
   6 H     1.0000    0     1.008   -2.395130   -1.232077    1.727387

--------------------------------
INTERNAL COORDINATES (ANGSTROEM)
--------------------------------
 O      0   0   0     0.000000000000     0.00000000     0.00000000
 C      1   0   0     1.467978580263     0.00000000     0.00000000
 C      1   2   0     1.357380091108    63.69771115     0.00000000
 H      2   1   3     1.079267312416   114.06159561   249.97567489
 H      2   1   3     1.079269292302   114.06756336   110.02364087
 H      3   1   2     1.086362247357   116.55855476   250.17435435
 H      3   1   2     1.086359735879   116.56512221   109.83042885

---------------------------
INTERNAL COORDINATES (A.U.)
---------------------------
 O      0   0   0     0.000000000000     0.00000000     0.00000000
 C      1   0   0     2.774077487159     0.00000000     0.00000000
 C      1   2   0     2.565076631830    63.69771115     0.00000000
 H      2   1   3     2.039519645759   114.06159561   249.97567489
 H      2   1   3     2.039523387202   114.06756336   110.02364087
 H      3   1   2     2.052927129735   116.55855476   250.17435435
 H      3   1   2     2.052922383730   116.56512221   109.83042885

---------------------
BASIS SET INFORMATION
---------------------
There are 3 groups of distinct atoms

 Group   1 Type O   : 12s7p3d1f contracted to 6s4p3d1f pattern {621111/4111/111/1}
 Group   2 Type C   : 12s6p3d1f contracted to 6s3p3d1f pattern {621111/411/111/1}
 Group   3 Type H   : 5s3p1d contracted to 3s3p1d pattern {311/111/1}

Atom   0O    basis set group =>   1
Atom   1C    basis set group =>   2
Atom   2C    basis set group =>   2
Atom   3H    basis set group =>   3
Atom   4H    basis set group =>   3
Atom   5H    basis set group =>   3
Atom   6H    basis set group =>   3
---------------------------------
AUXILIARY/J BASIS SET INFORMATION
---------------------------------
There are 3 groups of distinct atoms

 Group   1 Type O   : 12s5p4d2f1g contracted to 6s4p3d1f1g pattern {711111/2111/211/2/1}
 Group   2 Type C   : 12s5p4d2f1g contracted to 6s4p3d1f1g pattern {711111/2111/211/2/1}
 Group   3 Type H   : 5s2p1d contracted to 3s1p1d pattern {311/2/1}

Atom   0O    basis set group =>   1
Atom   1C    basis set group =>   2
Atom   2C    basis set group =>   2
Atom   3H    basis set group =>   3
Atom   4H    basis set group =>   3
Atom   5H    basis set group =>   3
Atom   6H    basis set group =>   3
[1740998932.593133] [ohm:3189837:0]        ib_iface.c:1059 UCX  ERROR ibv_create_cq(cqe=256) failed: Connection timed out
[1740998932.593166] [ohm:3189841:0]        ib_iface.c:1059 UCX  ERROR ibv_create_cq(cqe=256) failed: Connection timed out
[1740998932.596510] [ohm:3189839:0]        ib_iface.c:1059 UCX  ERROR ibv_create_cq(cqe=256) failed: Connection timed out
[1740998932.609752] [ohm:3189840:0]        ib_iface.c:1059 UCX  ERROR ibv_create_cq(cqe=256) failed: Connection timed out
[1740998932.609799] [ohm:3189838:0]        ib_iface.c:1059 UCX  ERROR ibv_create_cq(cqe=256) failed: Connection timed out
[1740998932.610200] [ohm:3189842:0]        ib_iface.c:1059 UCX  ERROR ibv_create_cq(cqe=256) failed: Connection timed out
[1740998932.610390] [ohm:3189836:0]        ib_iface.c:1059 UCX  ERROR ibv_create_cq(cqe=256) failed: Connection timed out
[1740998932.610550] [ohm:3189843:0]        ib_iface.c:1059 UCX  ERROR ibv_create_cq(cqe=256) failed: Connection timed out
[1740998932.610651] [ohm:3189849:0]        ib_iface.c:1059 UCX  ERROR ibv_create_cq(cqe=256) failed: Connection timed out
[1740998932.611831] [ohm:3189846:0]        ib_iface.c:1059 UCX  ERROR ibv_create_cq(cqe=256) failed: Connection timed out
[1740998932.615180] [ohm:3189844:0]        ib_iface.c:1059 UCX  ERROR ibv_create_cq(cqe=256) failed: Connection timed out
[1740998932.615182] [ohm:3189848:0]        ib_iface.c:1059 UCX  ERROR ibv_create_cq(cqe=256) failed: Connection timed out
[1740998932.618716] [ohm:3189857:0]        ib_iface.c:1059 UCX  ERROR ibv_create_cq(cqe=256) failed: Connection timed out
[1740998932.622847] [ohm:3189852:0]        ib_iface.c:1059 UCX  ERROR ibv_create_cq(cqe=256) failed: Connection timed out
[1740998932.634738] [ohm:3189868:0]        ib_iface.c:1059 UCX  ERROR ibv_create_cq(cqe=256) failed: Connection timed out
[1740998932.635288] [ohm:3189861:0]        ib_iface.c:1059 UCX  ERROR ibv_create_cq(cqe=256) failed: Connection timed out


           ************************************************************
           *        Program running with 16 parallel MPI-processes    *
           *              working on a common directory               *
           ************************************************************
------------------------------------------------------------------------------
                             ORCA STARTUP CALCULATIONS
                           -- RI-GTO INTEGRALS CHOSEN --
------------------------------------------------------------------------------
------------------------------------------------------------------------------
                   ___                                                        
                  /   \      - P O W E R E D   B Y -                         
                 /     \                                                     
                 |  |  |   _    _      __       _____    __    __             
                 |  |  |  | |  | |    /  \     |  _  \  |  |  /  |          
                  \  \/   | |  | |   /    \    | | | |  |  | /  /          
                 / \  \   | |__| |  /  /\  \   | |_| |  |  |/  /          
                |  |  |   |  __  | /  /__\  \  |    /   |      \           
                |  |  |   | |  | | |   __   |  |    \   |  |\   \          
                \     /   | |  | | |  |  |  |  | |\  \  |  | \   \       
                 \___/    |_|  |_| |__|  |__|  |_| \__\ |__|  \__/        
                                                                              
                      - O R C A' S   B I G   F R I E N D -                    
                                      &                                       
                       - I N T E G R A L  F E E D E R -                       
                                                                              
 v1 FN, 2020, v2 2021, v3 2022-2024                                           
------------------------------------------------------------------------------


----------------------
SHARK INTEGRAL PACKAGE
----------------------

Number of atoms                             ...      7
Number of basis functions                   ...    182
Number of shells                            ...     68
Maximum angular momentum                    ...      3
Integral batch strategy                     ... SHARK/LIBINT Hybrid
RI-J (if used) integral strategy            ... SPLIT-RIJ (Revised 2003 algorithm where possible)
Printlevel                                  ...      1
Contraction scheme used                     ... SEGMENTED contraction
Prescreening option                         ... SCHWARTZ
   Thresh                                   ... 2.500e-11
   Tcut                                     ... 2.500e-12
   Tpresel                                  ... 2.500e-12 
Coulomb Range Separation                    ... NOT USED
Exchange Range Separation                   ... Long Range
   Mu parameter                             ... 3.000e-01
   Scaling (regular/separated)              ... 1.500e-01 8.500e-01
Multipole approximations                    ... NOT USED
Finite Nucleus Model                        ... NOT USED
CABS basis                                  ... NOT available
Auxiliary Coulomb fitting basis             ... AVAILABLE
   # of basis functions in Aux-J            ...    191
   # of shells in Aux-J                     ...     65
   Maximum angular momentum in Aux-J        ...      4
Auxiliary J/K fitting basis                 ... NOT available
Auxiliary Correlation fitting basis         ... NOT available
Auxiliary 'external' fitting basis          ... NOT available

Checking pre-screening integrals            ... done (  0.0 sec) Dimension = 68
Check shell pair data                       ... done (  0.0 sec)
Shell pair information
Shell pair cut-off parameter TPreSel        ...   2.5e-12
Total number of shell pairs                 ...      2346
Shell pairs after pre-screening             ...      2342
Total number of primitive shell pairs       ...      5434
Primitive shell pairs kept                  ...      4921
          la=0 lb=0:    461 shell pairs
          la=1 lb=0:    660 shell pairs
          la=1 lb=1:    253 shell pairs
          la=2 lb=0:    390 shell pairs
          la=2 lb=1:    286 shell pairs
          la=2 lb=2:     91 shell pairs
          la=3 lb=0:     90 shell pairs
          la=3 lb=1:     66 shell pairs
          la=3 lb=2:     39 shell pairs
          la=3 lb=3:      6 shell pairs

Calculating one electron integrals          ... done (  0.0 sec)
Calculating RI/J V-Matrix + Cholesky decomp.... done (  0.0 sec)
Calculating Nuclear repulsion               ... done (  0.0 sec) ENN=     75.526442159681 Eh

Diagonalization of the overlap matrix:
Smallest eigenvalue                        ... 1.208e-05
Time for diagonalization                   ...    0.003 sec
Threshold for overlap eigenvalues          ... 1.000e-07
Number of eigenvalues below threshold      ... 0
Time for construction of square roots      ...    0.002 sec
Total time needed                          ...    0.005 sec

-------------------
DFT GRID GENERATION
-------------------

General Integration Accuracy     IntAcc      ... 4.388
Radial Grid Type                 RadialGrid  ... OptM3 with GC (2021)
Angular Grid (max. ang.)         AngularGrid ... 4 (Lebedev-302)
Angular grid pruning method      GridPruning ... 4 (adaptive)
Weight generation scheme         WeightScheme... mBecke (2022)
Basis function cutoff            BFCut       ... 1.0000e-11
Integration weight cutoff        WCut        ... 1.0000e-14
Partially contracted basis set               ... off
Rotationally invariant grid construction     ... off
Angular grids for H and He will be reduced by one unit
Diffuse basis detected: some atoms will have their outermost
                        angular grid increased by 1.

Total number of grid points                  ...    33072
Total number of batches                      ...      520
Average number of points per batch           ...       63
Average number of grid points per atom       ...     4725

--------------------
COSX GRID GENERATION
--------------------

GRIDX 1
-------
General Integration Accuracy     IntAcc      ... 3.816
Radial Grid Type                 RadialGrid  ... OptM3 with GC (2021)
Angular Grid (max. ang.)         AngularGrid ... 1 (Lebedev-50)
Angular grid pruning method      GridPruning ... 4 (adaptive)
Weight generation scheme         WeightScheme... mBecke (2022)
Basis function cutoff            BFCut       ... 1.0000e-11
Integration weight cutoff        WCut        ... 1.0000e-14
Partially contracted basis set               ... on
Rotationally invariant grid construction     ... off
Angular grids for H and He will be reduced by one unit
Diffuse basis detected: some atoms will have their outermost
                        angular grid increased by 1.

Total number of grid points                  ...     4164
Total number of batches                      ...       37
Average number of points per batch           ...      112
Average number of grid points per atom       ...      595
UseSFitting                                  ... on

GRIDX 2
-------
General Integration Accuracy     IntAcc      ... 4.020
Radial Grid Type                 RadialGrid  ... OptM3 with GC (2021)
Angular Grid (max. ang.)         AngularGrid ... 2 (Lebedev-110)
Angular grid pruning method      GridPruning ... 4 (adaptive)
Weight generation scheme         WeightScheme... mBecke (2022)
Basis function cutoff            BFCut       ... 1.0000e-11
Integration weight cutoff        WCut        ... 1.0000e-14
Partially contracted basis set               ... on
Rotationally invariant grid construction     ... off
Angular grids for H and He will be reduced by one unit
Diffuse basis detected: some atoms will have their outermost
                        angular grid increased by 1.

Total number of grid points                  ...    10267
Total number of batches                      ...       84
Average number of points per batch           ...      122
Average number of grid points per atom       ...     1467
UseSFitting                                  ... on

GRIDX 3
-------
General Integration Accuracy     IntAcc      ... 4.338
Radial Grid Type                 RadialGrid  ... OptM3 with GC (2021)
Angular Grid (max. ang.)         AngularGrid ... 3 (Lebedev-194)
Angular grid pruning method      GridPruning ... 4 (adaptive)
Weight generation scheme         WeightScheme... mBecke (2022)
Basis function cutoff            BFCut       ... 1.0000e-11
Integration weight cutoff        WCut        ... 1.0000e-14
Partially contracted basis set               ... on
Rotationally invariant grid construction     ... off
Angular grids for H and He will be reduced by one unit
Diffuse basis detected: some atoms will have their outermost
                        angular grid increased by 1.

Total number of grid points                  ...    23026
Total number of batches                      ...      183
Average number of points per batch           ...      125
Average number of grid points per atom       ...     3289
UseSFitting                                  ... on
Initializing property integral containers    ... done (  0.0 sec)

SHARK setup successfully completed in   0.3 seconds

Maximum memory used throughout the entire STARTUP-calculation: 13.8 MB
[1740998933.591549] [ohm:3189934:0]        ib_iface.c:1059 UCX  ERROR ibv_create_cq(cqe=256) failed: Connection timed out
[1740998933.592255] [ohm:3189936:0]        ib_iface.c:1059 UCX  ERROR ibv_create_cq(cqe=256) failed: Connection timed out
[1740998933.592231] [ohm:3189938:0]        ib_iface.c:1059 UCX  ERROR ibv_create_cq(cqe=256) failed: Connection timed out
[1740998933.593471] [ohm:3189932:0]        ib_iface.c:1059 UCX  ERROR ibv_create_cq(cqe=256) failed: Connection timed out
[1740998933.596206] [ohm:3189933:0]        ib_iface.c:1059 UCX  ERROR ibv_create_cq(cqe=256) failed: Connection timed out
[1740998933.596316] [ohm:3189935:0]        ib_iface.c:1059 UCX  ERROR ibv_create_cq(cqe=256) failed: Connection timed out
[1740998933.597233] [ohm:3189931:0]        ib_iface.c:1059 UCX  ERROR ibv_create_cq(cqe=256) failed: Connection timed out
[1740998933.597234] [ohm:3189939:0]        ib_iface.c:1059 UCX  ERROR ibv_create_cq(cqe=256) failed: Connection timed out
[1740998933.599073] [ohm:3189937:0]        ib_iface.c:1059 UCX  ERROR ibv_create_cq(cqe=256) failed: Connection timed out
[1740998933.606414] [ohm:3189941:0]        ib_iface.c:1059 UCX  ERROR ibv_create_cq(cqe=256) failed: Connection timed out
[1740998933.606414] [ohm:3189954:0]        ib_iface.c:1059 UCX  ERROR ibv_create_cq(cqe=256) failed: Connection timed out
[1740998933.606399] [ohm:3189959:0]        ib_iface.c:1059 UCX  ERROR ibv_create_cq(cqe=256) failed: Connection timed out
[1740998933.609091] [ohm:3189944:0]        ib_iface.c:1059 UCX  ERROR ibv_create_cq(cqe=256) failed: Connection timed out
[1740998933.609908] [ohm:3189943:0]        ib_iface.c:1059 UCX  ERROR ibv_create_cq(cqe=256) failed: Connection timed out
[1740998933.609911] [ohm:3189956:0]        ib_iface.c:1059 UCX  ERROR ibv_create_cq(cqe=256) failed: Connection timed out
[1740998933.610211] [ohm:3189948:0]        ib_iface.c:1059 UCX  ERROR ibv_create_cq(cqe=256) failed: Connection timed out


           ************************************************************
           *        Program running with 16 parallel MPI-processes    *
           *              working on a common directory               *
           ************************************************************
-------------------------------------------------------------------------------
                                 ORCA GUESS
                   Start orbitals & Density for SCF / CASSCF
-------------------------------------------------------------------------------

------------
SCF SETTINGS
------------
Hamiltonian:
 Density Functional     Method          .... DFT(GTOs)
  Functional kind                       .... Exchange-Correlation
  Functional name                       .... wB97M-V exchange-correlation functional
  Functional family                     .... Hybrid MGGA
  Functional refs                              
    [ 0] N. Mardirossian and M. Head-Gordon.,  J. Chem. Phys. 144, 214110 (2016), doi: 10.1063/1.4952647
  Fraction of HF Exchange (short range) .... 0.1500
  Fraction of HF Exchange (long range)  .... 1.0000
  Range separation parameter mu         .... 0.3000
  Functional external parameters        .... 17
    Parameter  0 _cx00      =  8.500000e-01 : u^00 coefficient for exchange
    Parameter  1 _cx01      =  1.007000e+00 : u^01 coefficient for exchange
    Parameter  2 _cx10      =  2.590000e-01 : u^10 coefficient for exchange
    Parameter  3 _css00     =  4.430000e-01 : u^00 coefficient for same-spin correlation
    Parameter  4 _css04     = -1.437000e+00 : u^04 coefficient for same-spin correlation
    Parameter  5 _css10     = -4.535000e+00 : u^10 coefficient for same-spin correlation
    Parameter  6 _css20     = -3.390000e+00 : u^20 coefficient for same-spin correlation
    Parameter  7 _css43     =  4.278000e+00 : u^43 coefficient for same-spin correlation
    Parameter  8 _cos00     =  1.000000e+00 : u^00 coefficient for opposite-spin correlation
    Parameter  9 _cos10     =  1.358000e+00 : u^10 coefficient for opposite-spin correlation
    Parameter 10 _cos20     =  2.924000e+00 : u^20 coefficient for opposite-spin correlation
    Parameter 11 _cos21     = -8.812000e+00 : u^21 coefficient for opposite-spin correlation
    Parameter 12 _cos60     = -1.390000e+00 : u^60 coefficient for opposite-spin correlation
    Parameter 13 _cos61     =  9.142000e+00 : u^61 coefficient for opposite-spin correlation
    Parameter 14 _alpha     =  1.000000e+00 : fraction of HF exchange
    Parameter 15 _beta      = -8.500000e-01 : fraction of short-range exchange
    Parameter 16 _omega     =  3.000000e-01 : range-separation constant
 Long-range corrected/Screened/Range-Separated Hybrid DFT is turned on
   Amount of maximum screened exact exchange              ....  0.850000
   Range separation parameter mu (erf(mu*r12)/r12)        ....  0.300000
 RI-approximation to the Coulomb term is turned on
   Number of AuxJ basis functions       .... 191
   RIJ-COSX (HFX calculated with COS-X)).... on


General Settings:
 Integral files         IntName         .... orca
 Hartree-Fock type      HFTyp           .... UHF
 Total Charge           Charge          ....    0
 Multiplicity           Mult            ....    3
 Number of Electrons    NEL             ....   24
 Basis Dimension        Dim             ....  182
 Nuclear Repulsion      ENuc            ....     75.5264421597 Eh

Convergence Acceleration:
 AO-DIIS                CNVDIIS         .... on
   Start iteration      DIISMaxIt       ....    12
   Startup error        DIISStart       ....  0.200000
   # of expansion vecs  DIISMaxEq       ....     5
   Bias factor          DIISBfac        ....   1.050
   Max. coefficient     DIISMaxC        ....  10.000
 MO-DIIS                CNVKDIIS        .... off
 Trust-Rad. Augm. Hess. CNVTRAH         .... auto
   Auto Start mean grad. ratio tolernc. ....  1.125000
   Auto Start start iteration           ....    50
   Auto Start num. interpolation iter.  ....    10
   Max. Number of Micro iterations      ....    24
   Max. Number of Macro iterations      .... Maxiter - #DIIS iter
   Number of Davidson start vectors     ....     2
   Converg. threshold    (grad. norm)   ....   1.000e-05
   Grad. Scal. Fac. for Micro threshold ....   0.100
   Minimum threshold for Micro iter.    ....   1.000e-02
   NR start threshold (gradient norm)   ....   1.000e-04
   Initial trust radius                 ....   0.400
   Minimum AH scaling param. (alpha)    ....   1.000
   Maximum AH scaling param. (alpha)    .... 1000.000
   Quad. conv. algorithm                .... NR
   White noise on init. David. guess    .... on
   Maximum white noise                  ....   0.010
   Pseudo random numbers                .... off
   Inactive MOs                         .... canonical
   Orbital update algorithm             .... Taylor
   Preconditioner                       .... Diag
   Full preconditioner red. dimension   ....   250
 SOSCF                  CNVSOSCF        .... on
   Start iteration      SOSCFMaxIt      ....   150
   Startup grad/error   SOSCFStart      ....  0.003300
   Hessian update       SOSCFHessUp     .... L-BFGS
 Level Shifting         CNVShift        .... on
   Level shift para.    LevelShift      ....    0.2500
   Turn off err/grad.   ShiftErr        ....    0.0010
 Zerner damping         CNVZerner       .... off
 Static damping         CNVDamp         .... on
   Fraction old density DampFac         ....    0.7000
   Max. Damping (<1)    DampMax         ....    0.9800
   Min. Damping (>=0)   DampMin         ....    0.0000
   Turn off err/grad.   DampErr         ....    0.1000

SCF Procedure:
 Maximum # iterations   MaxIter         ....   125
 SCF integral mode      SCFMode         .... Direct
   Integral package                     .... SHARK and LIBINT hybrid scheme
 Reset frequency        DirectResetFreq ....    20
 Integral Threshold     Thresh          ....  2.500e-11 Eh
 Primitive CutOff       TCut            ....  2.500e-12 Eh

Convergence Tolerance:
 Convergence Check Mode ConvCheckMode   .... Total+1el-Energy
 Convergence forced     ConvForced      .... 1
 Energy Change          TolE            ....  1.000e-08 Eh
 1-El. energy change                    ....  1.000e-05 Eh
 Orbital Gradient       TolG            ....  1.000e-05
 Orbital Rotation angle TolX            ....  1.000e-05
 DIIS Error             TolErr          ....  5.000e-07

------------------------------
INITIAL GUESS: MODEL POTENTIAL
------------------------------
Loading Hartree-Fock densities                     ... done
Calculating cut-offs                               ... done
Initializing the effective Hamiltonian             ... done
Setting up the integral package (SHARK)            ... done
Starting the Coulomb interaction                   ... done (   0.0 sec)
Making the grid                                    ... done (   0.0 sec)
Mapping shells                                     ... done
Starting the XC term evaluation                    ... done (   0.0 sec)
  promolecular density results
     # of electrons  =     23.997253034
     EX              =    -19.548602146
     EC              =     -0.782873836
     EX+EC           =    -20.331475982
Transforming the Hamiltonian                       ... done (   0.0 sec)
Diagonalizing the Hamiltonian                      ... done (   0.0 sec)
Back transforming the eigenvectors                 ... done (   0.0 sec)
Now organizing SCF variables                       ... done
                      ------------------
                      INITIAL GUESS DONE (   0.1 sec)
                      ------------------
             **** ENERGY FILE WAS UPDATED (orca.en.tmp) ****
Finished Guess after   0.5 sec
Maximum memory used throughout the entire GUESS-calculation: 9.7 MB
[1740998934.341547] [ohm:3190018:0]        ib_iface.c:1059 UCX  ERROR ibv_create_cq(cqe=256) failed: Connection timed out
[1740998934.341541] [ohm:3190022:0]        ib_iface.c:1059 UCX  ERROR ibv_create_cq(cqe=256) failed: Connection timed out
[1740998934.341762] [ohm:3190024:0]        ib_iface.c:1059 UCX  ERROR ibv_create_cq(cqe=256) failed: Connection timed out
[1740998934.345817] [ohm:3190020:0]        ib_iface.c:1059 UCX  ERROR ibv_create_cq(cqe=256) failed: Connection timed out
[1740998934.350552] [ohm:3190021:0]        ib_iface.c:1059 UCX  ERROR ibv_create_cq(cqe=256) failed: Connection timed out
[1740998934.352509] [ohm:3190017:0]        ib_iface.c:1059 UCX  ERROR ibv_create_cq(cqe=256) failed: Connection timed out
[1740998934.352509] [ohm:3190023:0]        ib_iface.c:1059 UCX  ERROR ibv_create_cq(cqe=256) failed: Connection timed out
[1740998934.354162] [ohm:3190025:0]        ib_iface.c:1059 UCX  ERROR ibv_create_cq(cqe=256) failed: Connection timed out
[1740998934.355718] [ohm:3190019:0]        ib_iface.c:1059 UCX  ERROR ibv_create_cq(cqe=256) failed: Connection timed out
[1740998934.355985] [ohm:3190027:0]        ib_iface.c:1059 UCX  ERROR ibv_create_cq(cqe=256) failed: Connection timed out
[1740998934.356073] [ohm:3190030:0]        ib_iface.c:1059 UCX  ERROR ibv_create_cq(cqe=256) failed: Connection timed out
[1740998934.357841] [ohm:3190029:0]        ib_iface.c:1059 UCX  ERROR ibv_create_cq(cqe=256) failed: Connection timed out
[1740998934.361569] [ohm:3190039:0]        ib_iface.c:1059 UCX  ERROR ibv_create_cq(cqe=256) failed: Connection timed out
[1740998934.364241] [ohm:3190033:0]        ib_iface.c:1059 UCX  ERROR ibv_create_cq(cqe=256) failed: Connection timed out
[1740998934.364337] [ohm:3190044:0]        ib_iface.c:1059 UCX  ERROR ibv_create_cq(cqe=256) failed: Connection timed out
[1740998934.370910] [ohm:3190046:0]        ib_iface.c:1059 UCX  ERROR ibv_create_cq(cqe=256) failed: Connection timed out


           ************************************************************
           *        Program running with 16 parallel MPI-processes    *
           *              working on a common directory               *
           ************************************************************

-------------------------------------------------------------------------------------------
                                      ORCA LEAN-SCF
                              memory conserving SCF solver
-------------------------------------------------------------------------------------------

----------------------------------------D-I-I-S--------------------------------------------
Iteration    Energy (Eh)           Delta-E    RMSDP     MaxDP     DIISErr   Damp  Time(sec)
-------------------------------------------------------------------------------------------
               ***  Starting incremental Fock matrix formation  ***
    1    -153.5252723818281311     0.00e+00  2.08e-03  2.49e-01  8.72e-02  0.700   0.4
Warning: op=0 Small HOMO/LUMO gap (   0.096) - skipping pre-diagonalization
         Will do a full diagonalization
    2    -153.5573256184128468    -3.21e-02  3.82e-03  5.09e-01  5.23e-02  0.700   0.3
                               ***Turning on AO-DIIS***
    3    -153.5747342165935265    -1.74e-02  2.58e-03  3.45e-01  2.64e-02  0.700   0.3
    4    -153.5854360974342399    -1.07e-02  6.12e-03  8.14e-01  1.89e-02  0.000   0.3
    5    -153.6103302388710858    -2.49e-02  1.15e-03  1.43e-01  7.63e-03  0.000   0.3
    6    -153.6111660705066129    -8.36e-04  1.24e-03  1.51e-01  5.68e-03  0.000   0.3
    7    -153.6119372827585039    -7.71e-04  1.17e-03  1.29e-01  3.43e-03  0.000   0.3
                              *** Initializing SOSCF ***
---------------------------------------S-O-S-C-F--------------------------------------
Iteration    Energy (Eh)           Delta-E    RMSDP     MaxDP     MaxGrad    Time(sec)
--------------------------------------------------------------------------------------
    8    -153.6125772092205466    -6.40e-04  9.40e-04  8.47e-02  2.30e-03     0.3
               *** Restarting incremental Fock matrix formation ***
    9    -153.6130636982102260    -4.86e-04  1.27e-03  9.47e-02  4.18e-03     0.4
   10    -153.6135054600313197    -4.42e-04  6.57e-03  4.35e-01  3.30e-03     0.4
   11    -153.6145180032337976    -1.01e-03  1.12e-03  1.01e-01  3.45e-03     0.4
   12    -153.6146377978894293    -1.20e-04  3.22e-04  3.66e-02  1.92e-03     0.4
   13    -153.6147032713562339    -6.55e-05  7.35e-04  4.77e-02  7.64e-04     0.4
   14    -153.6147205092822787    -1.72e-05  1.38e-03  9.01e-02  6.15e-04     0.4
   15    -153.6147346520727979    -1.41e-05  6.92e-04  6.09e-02  2.92e-04     0.4
   16    -153.6147396756532544    -5.02e-06  8.38e-04  9.23e-02  2.87e-04     0.3
   17    -153.6147433480606992    -3.67e-06  7.81e-04  8.26e-02  2.41e-04     0.4
   18    -153.6147459581612225    -2.61e-06  7.05e-04  5.09e-02  1.95e-04     0.4
   19    -153.6147479807600007    -2.02e-06  5.36e-04  4.23e-02  1.28e-04     0.3
   20    -153.6147493080003983    -1.33e-06  2.64e-04  2.25e-02  1.51e-04     0.3
   21    -153.6147499062946622    -5.98e-07  8.76e-05  7.05e-03  1.46e-04     0.3
   22    -153.6147501121592427    -2.06e-07  6.30e-05  4.97e-03  6.03e-05     0.3
   23    -153.6147501690638819    -5.69e-08  4.32e-05  5.85e-03  1.66e-05     0.3
   24    -153.6147501812392875    -1.22e-08  1.33e-05  1.64e-03  4.91e-06     0.3
   25    -153.6147501843330474    -3.09e-09  3.24e-06  2.45e-04  1.31e-06     0.3
                 **** Energy Check signals convergence ****

               *****************************************************
               *                     SUCCESS                       *
               *           SCF CONVERGED AFTER  25 CYCLES          *
               *****************************************************

Recomputing exchange energy using gridx3       ... done (    0.426 sec)
Old exchange energy                            :     -6.166052219 Eh
New exchange energy                            :     -6.166043544 Eh
Exchange energy change after final integration :      0.000008675 Eh
Total energy after final integration           :   -153.614741509 Eh
             **** ENERGY FILE WAS UPDATED (orca.en.tmp) ****

----------------
TOTAL SCF ENERGY
----------------

Total Energy       :       -153.61474150931184 Eh           -4180.06963 eV

Components:
Nuclear Repulsion  :         75.52644215968083 Eh            2055.17897 eV
Electronic Energy  :       -229.14119234401389 Eh           -6235.24884 eV
One Electron Energy:       -356.06214802332045 Eh           -9688.94362 eV
Two Electron Energy:        126.92095567930656 Eh            3453.69479 eV

Virial components:
Potential Energy   :       -307.24484372355067 Eh           -8360.55724 eV
Kinetic Energy     :        153.63010221423883 Eh            4180.48761 eV
Virial Ratio       :          1.99990001500549

DFT components:
N(Alpha)           :       12.999089961884 electrons
N(Beta)            :       11.000003475329 electrons
N(Total)           :       23.999093437213 electrons
E(XC)              :      -14.713254588943 Eh       

---------------
SCF CONVERGENCE
---------------

  Last Energy change         ...    3.0938e-09  Tolerance :   1.0000e-08
  Last MAX-Density change    ...    2.4523e-04  Tolerance :   1.0000e-07
  Last RMS-Density change    ...    3.2355e-06  Tolerance :   5.0000e-09
  Last DIIS Error            ...    2.2982e-03  Tolerance :   5.0000e-07
  Last Orbital Gradient      ...    1.3076e-06  Tolerance :   1.0000e-05
  Last Orbital Rotation      ...    2.2222e-05  Tolerance :   1.0000e-05


----------------------
UHF SPIN CONTAMINATION
----------------------

Warning: in a DFT calculation there is little theoretical justification to 
         calculate <S**2> as in Hartree-Fock theory. We will do it anyways
         but you should keep in mind that the values have only limited relevance

Expectation value of <S**2>     :     2.005070
Ideal value S*(S+1) for S=1.0   :     2.000000
Deviation                       :     0.005070

----------------
ORBITAL ENERGIES
----------------
                 SPIN UP ORBITALS
  NO   OCC          E(Eh)            E(eV) 
   0   1.0000     -19.497791      -530.5619 
   1   1.0000     -10.436691      -283.9968 
   2   1.0000     -10.398880      -282.9679 
   3   1.0000      -1.335653       -36.3450 
   4   1.0000      -0.861747       -23.4493 
   5   1.0000      -0.809557       -22.0292 
   6   1.0000      -0.711933       -19.3727 
   7   1.0000      -0.669934       -18.2298 
   8   1.0000      -0.603379       -16.4188 
   9   1.0000      -0.523816       -14.2538 
  10   1.0000      -0.513538       -13.9741 
  11   1.0000      -0.466900       -12.7050 
  12   1.0000      -0.121718        -3.3121 
  13   0.0000       0.032254         0.8777 
  14   0.0000       0.057516         1.5651 
  15   0.0000       0.067478         1.8362 
  16   0.0000       0.082787         2.2527 
  17   0.0000       0.105752         2.8777 
  18   0.0000       0.126154         3.4328 
  19   0.0000       0.134078         3.6485 
  20   0.0000       0.141443         3.8489 
  21   0.0000       0.154290         4.1984 
  22   0.0000       0.190151         5.1743 
  23   0.0000       0.196339         5.3427 

                 SPIN DOWN ORBITALS
  NO   OCC          E(Eh)            E(eV) 
   0   1.0000     -19.467014      -529.7244 
   1   1.0000     -10.436111      -283.9810 
   2   1.0000     -10.393146      -282.8119 
   3   1.0000      -1.274987       -34.6942 
   4   1.0000      -0.829645       -22.5758 
   5   1.0000      -0.790149       -21.5010 
   6   1.0000      -0.649689       -17.6789 
   7   1.0000      -0.641735       -17.4625 
   8   1.0000      -0.565919       -15.3994 
   9   1.0000      -0.503928       -13.7126 
  10   1.0000      -0.442799       -12.0492 
  11   0.0000      -0.140993        -3.8366 
  12   0.0000       0.031309         0.8520 
  13   0.0000       0.057119         1.5543 
  14   0.0000       0.064264         1.7487 
  15   0.0000       0.070906         1.9295 
  16   0.0000       0.111554         3.0355 
  17   0.0000       0.115457         3.1417 
  18   0.0000       0.123362         3.3569 
  19   0.0000       0.149067         4.0563 
  20   0.0000       0.156280         4.2526 
  21   0.0000       0.162106         4.4111 
*Only the first 10 virtual orbitals were printed.

                    ********************************
                    * MULLIKEN POPULATION ANALYSIS *
                    ********************************

--------------------------------------------
MULLIKEN ATOMIC CHARGES AND SPIN POPULATIONS
--------------------------------------------
   0 O :   -0.362743    1.318951
   1 C :   -0.402745    0.413286
   2 C :    0.176569   -0.142895
   3 H :    0.135591    0.134111
   4 H :    0.135626    0.134056
   5 H :    0.158833    0.071271
   6 H :    0.158870    0.071220
Sum of atomic charges         :    0.0000000
Sum of atomic spin populations:    2.0000000

-----------------------------------------------------
MULLIKEN REDUCED ORBITAL CHARGES AND SPIN POPULATIONS
-----------------------------------------------------
CHARGE
  0 O s       :     4.114216  s :     4.114216
      pz      :     1.108916  p :     4.194651
      px      :     1.533391
      py      :     1.552344
      dz2     :     0.006014  d :     0.051908
      dxz     :     0.000933
      dyz     :     0.010409
      dx2y2   :     0.014423
      dxy     :     0.020130
      f0      :     0.000223  f :     0.001968
      f+1     :     0.000107
      f-1     :     0.000297
      f+2     :     0.000080
      f-2     :     0.000232
      f+3     :     0.000402
      f-3     :     0.000628

  1 C s       :     3.521822  s :     3.521822
      pz      :     1.156482  p :     2.761900
      px      :     0.822007
      py      :     0.783411
      dz2     :     0.017969  d :     0.108860
      dxz     :    -0.021501
      dyz     :     0.002850
      dx2y2   :     0.064560
      dxy     :     0.044982
      f0      :     0.000940  f :     0.010163
      f+1     :     0.000845
      f-1     :     0.001067
      f+2     :     0.000703
      f-2     :     0.001096
      f+3     :     0.003378
      f-3     :     0.002133

  2 C s       :     3.240958  s :     3.240958
      pz      :     1.070466  p :     2.502809
      px      :     0.884054
      py      :     0.548289
      dz2     :     0.025778  d :     0.068045
      dxz     :    -0.005080
      dyz     :     0.011941
      dx2y2   :     0.026727
      dxy     :     0.008679
      f0      :     0.001265  f :     0.011619
      f+1     :     0.000946
      f-1     :     0.000807
      f+2     :     0.000770
      f-2     :     0.001518
      f+3     :     0.003186
      f-3     :     0.003125

  3 H s       :     0.709145  s :     0.709145
      pz      :     0.018763  p :     0.152739
      px      :     0.012825
      py      :     0.121151
      dz2     :     0.000708  d :     0.002524
      dxz     :     0.000555
      dyz     :     0.000690
      dx2y2   :     0.000269
      dxy     :     0.000303

  4 H s       :     0.709162  s :     0.709162
      pz      :     0.018771  p :     0.152687
      px      :     0.012824
      py      :     0.121093
      dz2     :     0.000708  d :     0.002524
      dxz     :     0.000555
      dyz     :     0.000690
      dx2y2   :     0.000269
      dxy     :     0.000303

  5 H s       :     0.777220  s :     0.777220
      pz      :     0.014151  p :     0.061310
      px      :     0.017971
      py      :     0.029188
      dz2     :     0.000771  d :     0.002637
      dxz     :     0.000654
      dyz     :     0.000540
      dx2y2   :     0.000328
      dxy     :     0.000343

  6 H s       :     0.777208  s :     0.777208
      pz      :     0.014149  p :     0.061285
      px      :     0.017969
      py      :     0.029167
      dz2     :     0.000771  d :     0.002637
      dxz     :     0.000654
      dyz     :     0.000540
      dx2y2   :     0.000328
      dxy     :     0.000343


SPIN
  0 O s       :     0.203157  s :     0.203157
      pz      :     0.813691  p :     1.107008
      px      :     0.081948
      py      :     0.211369
      dz2     :     0.001286  d :     0.009044
      dxz     :    -0.001135
      dyz     :    -0.005847
      dx2y2   :     0.008135
      dxy     :     0.006605
      f0      :    -0.000087  f :    -0.000258
      f+1     :    -0.000075
      f-1     :    -0.000124
      f+2     :    -0.000005
      f-2     :     0.000005
      f+3     :     0.000011
      f-3     :     0.000016

  1 C s       :     0.092963  s :     0.092963
      pz      :     0.040807  p :     0.247721
      px      :     0.021601
      py      :     0.185312
      dz2     :     0.007942  d :     0.070426
      dxz     :     0.002278
      dyz     :     0.001598
      dx2y2   :     0.038660
      dxy     :     0.019947
      f0      :     0.000284  f :     0.002176
      f+1     :    -0.000077
      f-1     :     0.000563
      f+2     :     0.000252
      f-2     :     0.000388
      f+3     :     0.000816
      f-3     :    -0.000049

  2 C s       :     0.010988  s :     0.010988
      pz      :     0.013006  p :    -0.177990
      px      :    -0.018735
      py      :    -0.172261
      dz2     :     0.027644  d :     0.021698
      dxz     :     0.003512
      dyz     :     0.010348
      dx2y2   :    -0.002046
      dxy     :    -0.017760
      f0      :     0.000555  f :     0.002409
      f+1     :     0.000002
      f-1     :    -0.000012
      f+2     :     0.000478
      f-2     :     0.000605
      f+3     :     0.000826
      f-3     :    -0.000046

  3 H s       :     0.016354  s :     0.016354
      pz      :     0.004913  p :     0.117439
      px      :     0.000494
      py      :     0.112032
      dz2     :    -0.000003  d :     0.000319
      dxz     :     0.000008
      dyz     :     0.000257
      dx2y2   :     0.000009
      dxy     :     0.000048

  4 H s       :     0.016350  s :     0.016350
      pz      :     0.004921  p :     0.117386
      px      :     0.000493
      py      :     0.111972
      dz2     :    -0.000003  d :     0.000319
      dxz     :     0.000008
      dyz     :     0.000257
      dx2y2   :     0.000009
      dxy     :     0.000048

  5 H s       :     0.049516  s :     0.049516
      pz      :    -0.000490  p :     0.021751
      px      :     0.000623
      py      :     0.021618
      dz2     :    -0.000005  d :     0.000004
      dxz     :     0.000024
      dyz     :    -0.000025
      dx2y2   :     0.000017
      dxy     :    -0.000006

  6 H s       :     0.049487  s :     0.049487
      pz      :    -0.000492  p :     0.021729
      px      :     0.000622
      py      :     0.021599
      dz2     :    -0.000005  d :     0.000004
      dxz     :     0.000024
      dyz     :    -0.000025
      dx2y2   :     0.000017
      dxy     :    -0.000006



                     *******************************
                     * LOEWDIN POPULATION ANALYSIS *
                     *******************************

-------------------------------------------
LOEWDIN ATOMIC CHARGES AND SPIN POPULATIONS
-------------------------------------------
   0 O :    0.093507    1.061695
   1 C :    0.010547    0.396409
   2 C :    0.002109    0.141367
   3 H :   -0.072426    0.144921
   4 H :   -0.072429    0.144931
   5 H :    0.019348    0.055345
   6 H :    0.019344    0.055331

----------------------------------------------------
LOEWDIN REDUCED ORBITAL CHARGES AND SPIN POPULATIONS
----------------------------------------------------
CHARGE
  0 O s       :     3.401614  s :     3.401614
      pz      :     1.022695  p :     4.038897
      px      :     1.435570
      py      :     1.580633
      dz2     :     0.036982  d :     0.458341
      dxz     :     0.060162
      dyz     :     0.083126
      dx2y2   :     0.134103
      dxy     :     0.143969
      f0      :     0.000787  f :     0.007640
      f+1     :     0.000287
      f-1     :     0.001014
      f+2     :     0.000166
      f-2     :     0.001192
      f+3     :     0.001201
      f-3     :     0.002993

  1 C s       :     2.671522  s :     2.671522
      pz      :     0.928963  p :     2.556351
      px      :     0.843524
      py      :     0.783864
      dz2     :     0.105480  d :     0.688214
      dxz     :     0.168252
      dyz     :     0.039673
      dx2y2   :     0.198934
      dxy     :     0.175875
      f0      :     0.006040  f :     0.073366
      f+1     :     0.007620
      f-1     :     0.009105
      f+2     :     0.004524
      f-2     :     0.004574
      f+3     :     0.024595
      f-3     :     0.016908

  2 C s       :     2.653379  s :     2.653379
      pz      :     0.913950  p :     2.553845
      px      :     0.903598
      py      :     0.736298
      dz2     :     0.098130  d :     0.704496
      dxz     :     0.190120
      dyz     :     0.060552
      dx2y2   :     0.189178
      dxy     :     0.166515
      f0      :     0.008225  f :     0.086170
      f+1     :     0.008366
      f-1     :     0.009115
      f+2     :     0.005722
      f-2     :     0.007734
      f+3     :     0.021567
      f-3     :     0.025440

  3 H s       :     0.682922  s :     0.682922
      pz      :     0.115691  p :     0.358667
      px      :     0.076510
      py      :     0.166465
      dz2     :     0.009082  d :     0.030838
      dxz     :     0.008723
      dyz     :     0.007682
      dx2y2   :     0.002797
      dxy     :     0.002554

  4 H s       :     0.682921  s :     0.682921
      pz      :     0.115688  p :     0.358672
      px      :     0.076509
      py      :     0.166475
      dz2     :     0.009081  d :     0.030837
      dxz     :     0.008722
      dyz     :     0.007683
      dx2y2   :     0.002797
      dxy     :     0.002554

  5 H s       :     0.680321  s :     0.680321
      pz      :     0.114692  p :     0.270022
      px      :     0.084476
      py      :     0.070853
      dz2     :     0.009185  d :     0.030310
      dxz     :     0.008836
      dyz     :     0.006229
      dx2y2   :     0.003331
      dxy     :     0.002729

  6 H s       :     0.680333  s :     0.680333
      pz      :     0.114688  p :     0.270014
      px      :     0.084478
      py      :     0.070848
      dz2     :     0.009184  d :     0.030309
      dxz     :     0.008835
      dyz     :     0.006228
      dx2y2   :     0.003332
      dxy     :     0.002729


SPIN
  0 O s       :     0.088568  s :     0.088568
      pz      :     0.714157  p :     0.938913
      px      :     0.073285
      py      :     0.151471
      dz2     :     0.005292  d :     0.033660
      dxz     :    -0.001755
      dyz     :     0.016494
      dx2y2   :     0.000456
      dxy     :     0.013172
      f0      :     0.000193  f :     0.000554
      f+1     :     0.000055
      f-1     :     0.000188
      f+2     :     0.000023
      f-2     :    -0.000005
      f+3     :     0.000100
      f-3     :    -0.000002

  1 C s       :     0.017034  s :     0.017034
      pz      :     0.024335  p :     0.220774
      px      :     0.006044
      py      :     0.190395
      dz2     :     0.010183  d :     0.141092
      dxz     :     0.008314
      dyz     :     0.033819
      dx2y2   :     0.040317
      dxy     :     0.048459
      f0      :     0.001892  f :     0.017509
      f+1     :     0.000351
      f-1     :     0.001997
      f+2     :     0.002163
      f-2     :     0.002177
      f+3     :     0.008955
      f-3     :    -0.000026

  2 C s       :     0.003317  s :     0.003317
      pz      :     0.015660  p :     0.030990
      px      :     0.012115
      py      :     0.003214
      dz2     :     0.006868  d :     0.089272
      dxz     :     0.016666
      dyz     :     0.055794
      dx2y2   :    -0.001648
      dxy     :     0.011592
      f0      :     0.003747  f :     0.017788
      f+1     :     0.000644
      f-1     :     0.000511
      f+2     :     0.003945
      f-2     :     0.003919
      f+3     :     0.005077
      f-3     :    -0.000054

  3 H s       :     0.017278  s :     0.017278
      pz      :     0.001964  p :     0.124170
      px      :     0.000368
      py      :     0.121839
      dz2     :     0.000114  d :     0.003473
      dxz     :     0.000254
      dyz     :     0.002703
      dx2y2   :     0.000039
      dxy     :     0.000363

  4 H s       :     0.017280  s :     0.017280
      pz      :     0.001965  p :     0.124179
      px      :     0.000368
      py      :     0.121846
      dz2     :     0.000115  d :     0.003473
      dxz     :     0.000253
      dyz     :     0.002703
      dx2y2   :     0.000039
      dxy     :     0.000363

  5 H s       :     0.030182  s :     0.030182
      pz      :     0.000831  p :     0.025169
      px      :     0.002969
      py      :     0.021369
      dz2     :    -0.000061  d :    -0.000006
      dxz     :     0.000217
      dyz     :    -0.000189
      dx2y2   :     0.000154
      dxy     :    -0.000127

  6 H s       :     0.030169  s :     0.030169
      pz      :     0.000831  p :     0.025168
      px      :     0.002969
      py      :     0.021368
      dz2     :    -0.000061  d :    -0.000006
      dxz     :     0.000217
      dyz     :    -0.000189
      dx2y2   :     0.000154
      dxy     :    -0.000127



                      *****************************
                      * MAYER POPULATION ANALYSIS *
                      *****************************

  NA   - Mulliken gross atomic population
  ZA   - Total nuclear charge
  QA   - Mulliken gross atomic charge
  VA   - Mayer's total valence
  BVA  - Mayer's bonded valence
  FA   - Mayer's free valence

  ATOM       NA         ZA         QA         VA         BVA        FA
  0 O      8.3627     8.0000    -0.3627     2.6965     1.7860     0.9105
  1 C      6.4027     6.0000    -0.4027     3.5744     3.4680     0.1064
  2 C      5.8234     6.0000     0.1766     3.0746     3.0551     0.0196
  3 H      0.8644     1.0000     0.1356     1.1956     1.1783     0.0173
  4 H      0.8644     1.0000     0.1356     1.1955     1.1782     0.0173
  5 H      0.8412     1.0000     0.1588     1.0742     1.0715     0.0027
  6 H      0.8411     1.0000     0.1589     1.0742     1.0715     0.0027

  Mayer bond orders larger than 0.100000
B(  0-O ,  1-C ) :   0.7493 B(  0-O ,  2-C ) :   0.6607 B(  0-O ,  3-H ) :   0.1328 
B(  0-O ,  4-H ) :   0.1328 B(  1-C ,  2-C ) :   0.6248 B(  1-C ,  3-H ) :   1.0490 
B(  1-C ,  4-H ) :   1.0490 B(  2-C ,  5-H ) :   0.9697 B(  2-C ,  6-H ) :   0.9698 


-------
TIMINGS
-------

Total SCF time: 0 days 0 hours 0 min 9 sec 

Total time                  ....       9.151 sec
Sum of individual times     ....       9.118 sec  ( 99.6%)

SCF preparation             ....       0.409 sec  (  4.5%)
Fock matrix formation       ....       7.893 sec  ( 86.3%)
  Startup                   ....       0.051 sec  (  0.6% of F)
  Split-RI-J                ....       0.347 sec  (  4.4% of F)
  Chain of spheres X        ....       5.115 sec  ( 64.8% of F)
  XC integration            ....       2.204 sec  ( 27.9% of F)
    XC Preparation          ....       0.000 sec  (  0.0% of XC)
    Basis function eval.    ....       0.143 sec  (  6.5% of XC)
    Density eval.           ....       0.661 sec  ( 30.0% of XC)
    XC-Functional eval.     ....       0.063 sec  (  2.9% of XC)
    XC-Potential eval.      ....       1.195 sec  ( 54.2% of XC)
Diagonalization             ....       0.000 sec  (  0.0%)
Density matrix formation    ....       0.124 sec  (  1.4%)
Total Energy calculation    ....       0.073 sec  (  0.8%)
Population analysis         ....       0.020 sec  (  0.2%)
Orbital Transformation      ....       0.048 sec  (  0.5%)
Orbital Orthonormalization  ....       0.000 sec  (  0.0%)
DIIS solution               ....       0.285 sec  (  3.1%)
SOSCF solution              ....       0.264 sec  (  2.9%)
Finished LeanSCF after   9.2 sec

Maximum memory used throughout the entire LEANSCF-calculation: 14.8 MB
[1740998943.771477] [ohm:3190135:0]        ib_iface.c:1059 UCX  ERROR ibv_create_cq(cqe=256) failed: Connection timed out
[1740998943.772141] [ohm:3190139:0]        ib_iface.c:1059 UCX  ERROR ibv_create_cq(cqe=256) failed: Connection timed out
[1740998943.783849] [ohm:3190137:0]        ib_iface.c:1059 UCX  ERROR ibv_create_cq(cqe=256) failed: Connection timed out
[1740998943.784162] [ohm:3190144:0]        ib_iface.c:1059 UCX  ERROR ibv_create_cq(cqe=256) failed: Connection timed out
[1740998943.785031] [ohm:3190147:0]        ib_iface.c:1059 UCX  ERROR ibv_create_cq(cqe=256) failed: Connection timed out
[1740998943.785414] [ohm:3190141:0]        ib_iface.c:1059 UCX  ERROR ibv_create_cq(cqe=256) failed: Connection timed out
[1740998943.785639] [ohm:3190134:0]        ib_iface.c:1059 UCX  ERROR ibv_create_cq(cqe=256) failed: Connection timed out
[1740998943.785640] [ohm:3190136:0]        ib_iface.c:1059 UCX  ERROR ibv_create_cq(cqe=256) failed: Connection timed out
[1740998943.785639] [ohm:3190138:0]        ib_iface.c:1059 UCX  ERROR ibv_create_cq(cqe=256) failed: Connection timed out
[1740998943.790928] [ohm:3190142:0]        ib_iface.c:1059 UCX  ERROR ibv_create_cq(cqe=256) failed: Connection timed out
[1740998943.791025] [ohm:3190140:0]        ib_iface.c:1059 UCX  ERROR ibv_create_cq(cqe=256) failed: Connection timed out
[1740998943.795803] [ohm:3190149:0]        ib_iface.c:1059 UCX  ERROR ibv_create_cq(cqe=256) failed: Connection timed out
[1740998943.796580] [ohm:3190162:0]        ib_iface.c:1059 UCX  ERROR ibv_create_cq(cqe=256) failed: Connection timed out
[1740998943.796573] [ohm:3190155:0]        ib_iface.c:1059 UCX  ERROR ibv_create_cq(cqe=256) failed: Connection timed out
[1740998943.797108] [ohm:3190146:0]        ib_iface.c:1059 UCX  ERROR ibv_create_cq(cqe=256) failed: Connection timed out
[1740998943.797109] [ohm:3190159:0]        ib_iface.c:1059 UCX  ERROR ibv_create_cq(cqe=256) failed: Connection timed out


           ************************************************************
           *        Program running with 16 parallel MPI-processes    *
           *              working on a common directory               *
           ************************************************************

------------------------------------------------------------------------------
                         ORCA PROPERTY INTEGRAL CALCULATIONS
------------------------------------------------------------------------------

GBWName                                   ... orca.gbw
Number of atoms                           ...      7
Number of basis functions                 ...    182
Max core memory                           ...   1024 MB

Dipole integrals                          ... YES
Quadrupole integrals                      ...  NO
Linear momentum integrals                 ... YES
Angular momentum integrals                ... YES
Higher moments length integrals           ...  NO
Higher moments velocity integrals         ...  NO
Kinetic energy integrals                  ...  NO
GIAO right hand sides                     ...  NO
GIAO dipole derivative integrals          ...  NO
SOC integrals                             ...  NO
EPR diamagnetic integrals (GIAO)          ...  NO
EPR gauge integrals                       ...  NO
Field gradient integrals                  ...  NO (   0 nuclei)
Spin-dipole/Fermi contact integrals       ...  NO (   0 nuclei)
Contact density integrals                 ...  NO (   0 nuclei)
Nucleus-orbit integrals                   ...  NO (   0 nuclei)
Geometric perturbations                   ...  NO (   7 nuclei)

Choice of electric origin   ... Center of mass
Position of electric origin ... ( -0.0171, -0.0374, -0.0000) 
Choice of magnetic origin   ... GIAO
Position of magnetic origin ... (  0.0000,  0.0000,  0.0000) 

Calculating integrals                     ... Electric Dipole (Length)     done (  0.0 sec)
Calculating integrals                     ... Linear Momentum              done (  0.0 sec)
Calculating integrals                     ... Angular Momentum  (ElOri)    done (  0.0 sec)

Property integrals calculated in   0.0 sec

Maximum memory used throughout the entire PROPINT-calculation: 10.4 MB
[1740998944.448872] [ohm:3190222:0]        ib_iface.c:1059 UCX  ERROR ibv_create_cq(cqe=256) failed: Connection timed out
[1740998944.448872] [ohm:3190224:0]        ib_iface.c:1059 UCX  ERROR ibv_create_cq(cqe=256) failed: Connection timed out
[1740998944.458146] [ohm:3190235:0]        ib_iface.c:1059 UCX  ERROR ibv_create_cq(cqe=256) failed: Connection timed out
[1740998944.459153] [ohm:3190225:0]        ib_iface.c:1059 UCX  ERROR ibv_create_cq(cqe=256) failed: Connection timed out
[1740998944.459344] [ohm:3190221:0]        ib_iface.c:1059 UCX  ERROR ibv_create_cq(cqe=256) failed: Connection timed out
[1740998944.459540] [ohm:3190223:0]        ib_iface.c:1059 UCX  ERROR ibv_create_cq(cqe=256) failed: Connection timed out
[1740998944.460731] [ohm:3190226:0]        ib_iface.c:1059 UCX  ERROR ibv_create_cq(cqe=256) failed: Connection timed out
[1740998944.460731] [ohm:3190228:0]        ib_iface.c:1059 UCX  ERROR ibv_create_cq(cqe=256) failed: Connection timed out
[1740998944.463431] [ohm:3190229:0]        ib_iface.c:1059 UCX  ERROR ibv_create_cq(cqe=256) failed: Connection timed out
[1740998944.463512] [ohm:3190227:0]        ib_iface.c:1059 UCX  ERROR ibv_create_cq(cqe=256) failed: Connection timed out
[1740998944.465337] [ohm:3190231:0]        ib_iface.c:1059 UCX  ERROR ibv_create_cq(cqe=256) failed: Connection timed out
[1740998944.466939] [ohm:3190233:0]        ib_iface.c:1059 UCX  ERROR ibv_create_cq(cqe=256) failed: Connection timed out
[1740998944.474301] [ohm:3190243:0]        ib_iface.c:1059 UCX  ERROR ibv_create_cq(cqe=256) failed: Connection timed out
[1740998944.476551] [ohm:3190246:0]        ib_iface.c:1059 UCX  ERROR ibv_create_cq(cqe=256) failed: Connection timed out
[1740998944.476914] [ohm:3190239:0]        ib_iface.c:1059 UCX  ERROR ibv_create_cq(cqe=256) failed: Connection timed out
[1740998944.481463] [ohm:3190249:0]        ib_iface.c:1059 UCX  ERROR ibv_create_cq(cqe=256) failed: Connection timed out


           ************************************************************
           *        Program running with 16 parallel MPI-processes    *
           *              working on a common directory               *
           ************************************************************
------------------------------------------------------------------------------
                        ORCA TD-DFT/TDA CALCULATION
------------------------------------------------------------------------------

Input orbitals are from        ... orca.gbw
CI-vector output               ... orca.cis
Solver                         ... FN-2001
Tamm-Dancoff approximation     ... operative
CIS-Integral strategy          ... AO-integrals
Integral handling              ... AO integral Direct
Max. core memory used          ... 512 MB
Reference state                ... UHF
Follow IRoot                   ... off
Number of operators            ... 2
Orbital ranges used for CIS calculation:
 Operator 0:  Orbitals   3... 12  to  11...181

-------------------
XC-INTEGRATION GRID
-------------------

General Integration Accuracy     IntAcc      ... 3.467
Radial Grid Type                 RadialGrid  ... OptM3 with GC (2021)
Angular Grid (max. ang.)         AngularGrid ... 1 (Lebedev-50)
Angular grid pruning method      GridPruning ... 4 (adaptive)
Weight generation scheme         WeightScheme... mBecke (2022)
Basis function cutoff            BFCut       ... 1.0000e-11
Integration weight cutoff        WCut        ... 1.0000e-14
Partially contracted basis set               ... off
Rotationally invariant grid construction     ... off
Angular grids for H and He will be reduced by one unit
Diffuse basis detected: some atoms will have their outermost
                        angular grid increased by 1.

Total number of grid points                  ...     4732
Total number of batches                      ...       77
Average number of points per batch           ...       61
Average number of grid points per atom       ...      676

---------------------
COSX-INTEGRATION GRID
---------------------

General Integration Accuracy     IntAcc      ... 3.067
Radial Grid Type                 RadialGrid  ... OptM3 with GC (2021)
Angular Grid (max. ang.)         AngularGrid ... 1 (Lebedev-50)
Angular grid pruning method      GridPruning ... 4 (adaptive)
Weight generation scheme         WeightScheme... mBecke (2022)
Basis function cutoff            BFCut       ... 1.0000e-11
Integration weight cutoff        WCut        ... 1.0000e-14
Partially contracted basis set               ... on
Rotationally invariant grid construction     ... off
Angular grids for H and He will be reduced by one unit
Diffuse basis detected: some atoms will have their outermost
                        angular grid increased by 1.

Total number of grid points                  ...     2151
Total number of batches                      ...       22
Average number of points per batch           ...       97
Average number of grid points per atom       ...      307

---------------
TD-DFT XC SETUP
---------------

DFT calculation                         ... on
Name of the grid file                   ... orca.grid_cis.tmp
RI-approximation                        ... on
Aux-basis dimension                     ... 0
Functional (TD-DFT)
  Functional kind                       .... Exchange-Correlation
  Functional name                       .... wB97M-V exchange-correlation functional
  Functional family                     .... Hybrid MGGA
  Functional refs                              
    [ 0] N. Mardirossian and M. Head-Gordon.,  J. Chem. Phys. 144, 214110 (2016), doi: 10.1063/1.4952647
  Fraction of HF Exchange (short range) .... 0.1500
  Fraction of HF Exchange (long range)  .... 1.0000
  Range separation parameter mu         .... 0.3000
  Functional external parameters        .... 17
    Parameter  0 _cx00      =  8.500000e-01 : u^00 coefficient for exchange
    Parameter  1 _cx01      =  1.007000e+00 : u^01 coefficient for exchange
    Parameter  2 _cx10      =  2.590000e-01 : u^10 coefficient for exchange
    Parameter  3 _css00     =  4.430000e-01 : u^00 coefficient for same-spin correlation
    Parameter  4 _css04     = -1.437000e+00 : u^04 coefficient for same-spin correlation
    Parameter  5 _css10     = -4.535000e+00 : u^10 coefficient for same-spin correlation
    Parameter  6 _css20     = -3.390000e+00 : u^20 coefficient for same-spin correlation
    Parameter  7 _css43     =  4.278000e+00 : u^43 coefficient for same-spin correlation
    Parameter  8 _cos00     =  1.000000e+00 : u^00 coefficient for opposite-spin correlation
    Parameter  9 _cos10     =  1.358000e+00 : u^10 coefficient for opposite-spin correlation
    Parameter 10 _cos20     =  2.924000e+00 : u^20 coefficient for opposite-spin correlation
    Parameter 11 _cos21     = -8.812000e+00 : u^21 coefficient for opposite-spin correlation
    Parameter 12 _cos60     = -1.390000e+00 : u^60 coefficient for opposite-spin correlation
    Parameter 13 _cos61     =  9.142000e+00 : u^61 coefficient for opposite-spin correlation
    Parameter 14 _alpha     =  1.000000e+00 : fraction of HF exchange
    Parameter 15 _beta      = -8.500000e-01 : fraction of short-range exchange
    Parameter 16 _omega     =  3.000000e-01 : range-separation constant
Hybrid DFT                              ... on
   Exchange mixing (TD-DFT)             ...  0.150
   GGA exch. scaling (TD-DFT)           ...  0.000
   GGA corr. scaling (TD-DFT)           ...  1.000
Range-Separated Exchange                ... on
   Range Range separation parameter mu  .... 0.300
   Max. amount of RS exchange (TD-DFT)  ...  0.850

Building densities             ... done
Calculating rho(r) on the grid ... done
Building xc-kernel on the grid ... done
                    *** TD-DFT CALCULATION INITIALIZED ***

------------------------
DAVIDSON-DIAGONALIZATION
------------------------

Dimension of the eigenvalue problem            ...   1710
Number of roots to be determined               ...      2
Maximum size of the expansion space            ...     20
Maximum number of iterations                   ...    100
Convergence tolerance for the residual         ...    2.500e-07
Convergence tolerance for the energies         ...    2.500e-07
Orthogonality tolerance                        ...    1.000e-14
Level Shift                                    ...    0.000e+00
Constructing the preconditioner                ... o.k.
Building the initial guess                     ... o.k.
Number of trial vectors determined             ...     20


                       ****Iteration    0****
   Time for iteration     :  TOTAL=0.2 TRAFO=0.0 COSX=0.2
   Size of expansion space: 6
   Lowest Energy          :     0.005176464187
   Maximum Energy change  :     0.026906706486 (vector 1)
   Maximum residual norm  :     0.001225190080

                       ****Iteration    1****
   Time for iteration     :  TOTAL=0.1 TRAFO=0.0 COSX=0.1
   Size of expansion space: 8
   Lowest Energy          :    -0.000865875521
   Maximum Energy change  :     0.006803256292 (vector 1)
   Maximum residual norm  :     0.000172045625

                       ****Iteration    2****
   Time for iteration     :  TOTAL=0.1 TRAFO=0.0 COSX=0.1
   Size of expansion space: 10
   Lowest Energy          :    -0.001333141299
   Maximum Energy change  :     0.001241165529 (vector 1)
   Maximum residual norm  :     0.000154234227

                       ****Iteration    3****
   Time for iteration     :  TOTAL=0.2 TRAFO=0.0 RIJ=0.0 COSX=0.1
   Size of expansion space: 12
   Lowest Energy          :    -0.063955910508
   Maximum Energy change  :     0.062622769209 (vector 0)
   Maximum residual norm  :     0.085929866431

                       ****Iteration    4****
   Time for iteration     :  TOTAL=0.1 TRAFO=0.0 RIJ=0.0 COSX=0.1
   Size of expansion space: 14
   Lowest Energy          :    -0.253630312372
   Maximum Energy change  :     0.189674401864 (vector 0)
   Maximum residual norm  :     0.001039799819

                       ****Iteration    5****
   Time for iteration     :  TOTAL=0.1 TRAFO=0.0 COSX=0.1
   Size of expansion space: 16
   Lowest Energy          :    -0.254965170973
   Maximum Energy change  :     0.001334858601 (vector 0)
   Maximum residual norm  :     0.000012906065

                       ****Iteration    6****
   Time for iteration     :  TOTAL=0.1 TRAFO=0.0 COSX=0.1
   Size of expansion space: 18
   Lowest Energy          :    -0.254977680314
   Maximum Energy change  :     0.000012509341 (vector 0)
   Maximum residual norm  :     0.000000530223

                       ****Iteration    7****
   Time for iteration     :  TOTAL=0.1 TRAFO=0.0 COSX=0.1
   Size of expansion space: 20
   Lowest Energy          :    -0.254977868855
   Maximum Energy change  :     0.000000558073 (vector 1)
   Maximum residual norm  :     0.000000050920

      *** CONVERGENCE OF RESIDUAL NORM REACHED ***

Storing the converged CI vectors               ... orca.cis3

                 *** DAVIDSON DONE ***

Total time for solving the CIS problem:     1.227sec

---------------------
SF-TDA EXCITED STATES
---------------------

the weight of the individual excitations are printed if larger than 1.0e-02

UHF/UKS reference: multiplicity estimated based on rounded <S**2> value, RELEVANCE IS LIMITED!

(SPIN-FLIP GROUND STATE)
STATE  1:  E=  -0.254978 au     -6.938 eV   -55961.2 cm**-1 <S**2> =   0.022876 Mult 1
    12a ->  11b  :     0.991814 (c=  0.99589870)

STATE  2:  E=  -0.001415 au     -0.038 eV     -310.5 cm**-1 <S**2> =   1.006481 Mult 3
    12a ->  12b  :     0.669451 (c=  0.81819972)
    12a ->  13b  :     0.280228 (c= -0.52936597)
    12a ->  17b  :     0.022684 (c=  0.15061254)


-----------------------------
TD-DFT/TDA-EXCITATION SPECTRA
-----------------------------

Center of mass = ( -0.0171, -0.0374, -0.0000)
Generating CIS-Spin-flip transition densities           ... done

UHF/UKS reference: multiplicity estimated based on rounded <S**2> value, use it judiciously!

----------------------------------------------------------------------------------------------------
          SPIN FLIP ABSORPTION SPECTRUM VIA TRANSITION ELECTRIC DIPOLE MOMENTS    
----------------------------------------------------------------------------------------------------
[...]
      dz2     :    -0.026183  d :     0.044245
      dxz     :     0.021392
      dyz     :     0.054354
      dx2y2   :    -0.007478
      dxy     :     0.002161
      f0      :     0.003741  f :     0.012614
      f+1     :     0.000277
      f-1     :     0.000112
      f+2     :     0.003849
      f-2     :     0.003730
      f+3     :     0.000764
      f-3     :     0.000141
  3 H s       :     0.002701  s :     0.002701
      pz      :    -0.057010  p :    -0.066615
      px      :    -0.005828
      py      :    -0.003777
      dz2     :    -0.000744  d :     0.000234
      dxz     :    -0.000060
      dyz     :     0.000895
      dx2y2   :     0.000060
      dxy     :     0.000084
  4 H s       :     0.002737  s :     0.002737
      pz      :    -0.056618  p :    -0.066158
      px      :    -0.005812
      py      :    -0.003728
      dz2     :    -0.000745  d :     0.000235
      dxz     :    -0.000058
      dyz     :     0.000895
      dx2y2   :     0.000059
      dxy     :     0.000084
  5 H s       :     0.022518  s :     0.022518
      pz      :    -0.047688  p :    -0.053850
      px      :     0.002273
      py      :    -0.008435
      dz2     :    -0.000816  d :    -0.000984
      dxz     :     0.000041
      dyz     :    -0.000160
      dx2y2   :     0.000094
      dxy     :    -0.000142
  6 H s       :     0.022465  s :     0.022465
      pz      :    -0.047980  p :    -0.054153
      px      :     0.002283
      py      :    -0.008456
      dz2     :    -0.000815  d :    -0.000984
      dxz     :     0.000040
      dyz     :    -0.000161
      dx2y2   :     0.000094
      dxy     :    -0.000142


                      *****************************
                      * MAYER POPULATION ANALYSIS *
                      *****************************

  NA   - Mulliken gross atomic population
  ZA   - Total nuclear charge
  QA   - Mulliken gross atomic charge
  VA   - Mayer's total valence
  BVA  - Mayer's bonded valence
  FA   - Mayer's free valence

  ATOM       NA         ZA         QA         VA         BVA        FA
  0 O      7.1114     8.0000     0.8886     0.4014    -0.2115     0.6130
  1 C      8.1730     6.0000    -2.1730     4.8237    -0.1398     4.9635
  2 C      7.7695     6.0000    -1.7695     5.5249     2.5124     3.0125
  3 H      0.0533     1.0000     0.9467    -0.7866    -1.4787     0.6921
  4 H      0.0574     1.0000     0.9426    -0.7742    -1.4575     0.6833
  5 H      0.4186     1.0000     0.5814     0.1439     0.0532     0.0907
  6 H      0.4168     1.0000     0.5832     0.1397     0.0482     0.0915

  Mayer bond orders larger than 0.100000
B(  0-O ,  1-C ) :  -2.1624 B(  0-O ,  2-C ) :  -1.2170 B(  0-O ,  3-H ) :   1.0182 
B(  0-O ,  4-H ) :   1.0140 B(  0-O ,  5-H ) :   0.5669 B(  0-O ,  6-H ) :   0.5689 
B(  1-C ,  2-C ) :  10.0411 B(  1-C ,  3-H ) :  -1.7033 B(  1-C ,  4-H ) :  -1.6867 
B(  1-C ,  5-H ) :  -2.3100 B(  1-C ,  6-H ) :  -2.3184 B(  2-C ,  3-H ) :  -3.1599 
B(  2-C ,  4-H ) :  -3.1431 B(  3-H ,  4-H ) :   0.7845 B(  3-H ,  5-H ) :   0.7163 
B(  3-H ,  6-H ) :   0.8655 B(  4-H ,  5-H ) :   0.8585 B(  4-H ,  6-H ) :   0.7154 
B(  5-H ,  6-H ) :   0.2235 


-------
TIMINGS
-------

Total TD-DFT gradient time  ....        6.251 sec

Fock matrix formation       ....       1.180 sec  ( 18.9%)
  Coulomb formation         ....       0.917 sec  ( 77.6% of F)
  XC integration            ....       0.264 sec  ( 22.4% of F)
Z-vector equation           ....       2.321 sec  ( 37.1%)
Densities                   ....       0.000 sec  (  0.0%)
One electron gradient       ....       0.010 sec  (  0.2%)
RI-J Coulomb gradient       ....       0.097 sec  (  1.5%)
COSX gradient               ....       0.469 sec  (  7.5%)
XC gradient                 ....       1.938 sec  ( 31.0%)

Maximum memory used throughout the entire CIS-calculation: 35.8 MB
=> NOW LEAVING ORCA_CIS


-------------------------------------------------------------------------------
                          DFT DISPERSION CORRECTION                            
                                                                               
                              DFTD3 V3.1  Rev 1                                
                          USING Becke-Johnson damping                          
-------------------------------------------------------------------------------
The WB97M functional is recognized
Active option DFTDOPT                   ...         4   

molecular C6(AA) [au] = 350.802890 


            DFT-D V3
 parameters
 s6 scaling factor         :     1.0000 
 a1 scaling factor         :     0.5660 
 s8 scaling factor         :     0.3908 
 a2 scaling factor         :     3.1280 
 ad hoc parameters k1-k3   :    16.0000     1.3333    -4.0000 

 Edisp/kcal,au: -3.268307625603  -0.005208379175 
 E6   /kcal   :  -2.635861801 
 E8   /kcal   :  -0.632445824 
 % E8         :  19.350865849 

-------------------------   ----------------
Dispersion correction           -0.005208379
-------------------------   ----------------


-------------------------   --------------------
FINAL SINGLE POINT ENERGY      -153.621364533989
-------------------------   --------------------

[1740998952.708439] [ohm:3190351:0]        ib_iface.c:1059 UCX  ERROR ibv_create_cq(cqe=256) failed: Connection timed out
[1740998952.709368] [ohm:3190355:0]        ib_iface.c:1059 UCX  ERROR ibv_create_cq(cqe=256) failed: Connection timed out
[1740998952.746558] [ohm:3190353:0]        ib_iface.c:1059 UCX  ERROR ibv_create_cq(cqe=256) failed: Connection timed out
[1740998952.750775] [ohm:3190352:0]        ib_iface.c:1059 UCX  ERROR ibv_create_cq(cqe=256) failed: Connection timed out
[1740998952.750983] [ohm:3190350:0]        ib_iface.c:1059 UCX  ERROR ibv_create_cq(cqe=256) failed: Connection timed out
[1740998952.751244] [ohm:3190356:0]        ib_iface.c:1059 UCX  ERROR ibv_create_cq(cqe=256) failed: Connection timed out
[1740998952.751372] [ohm:3190354:0]        ib_iface.c:1059 UCX  ERROR ibv_create_cq(cqe=256) failed: Connection timed out
[1740998952.758602] [ohm:3190357:0]        ib_iface.c:1059 UCX  ERROR ibv_create_cq(cqe=256) failed: Connection timed out
[1740998952.758624] [ohm:3190360:0]        ib_iface.c:1059 UCX  ERROR ibv_create_cq(cqe=256) failed: Connection timed out
[1740998952.758722] [ohm:3190371:0]        ib_iface.c:1059 UCX  ERROR ibv_create_cq(cqe=256) failed: Connection timed out
[1740998952.761303] [ohm:3190362:0]        ib_iface.c:1059 UCX  ERROR ibv_create_cq(cqe=256) failed: Connection timed out
[1740998952.761365] [ohm:3190364:0]        ib_iface.c:1059 UCX  ERROR ibv_create_cq(cqe=256) failed: Connection timed out
[1740998952.763056] [ohm:3190358:0]        ib_iface.c:1059 UCX  ERROR ibv_create_cq(cqe=256) failed: Connection timed out
[1740998952.776203] [ohm:3190377:0]        ib_iface.c:1059 UCX  ERROR ibv_create_cq(cqe=256) failed: Connection timed out
[1740998952.778868] [ohm:3190379:0]        ib_iface.c:1059 UCX  ERROR ibv_create_cq(cqe=256) failed: Connection timed out
[1740998952.779347] [ohm:3190365:0]        ib_iface.c:1059 UCX  ERROR ibv_create_cq(cqe=256) failed: Connection timed out


           ************************************************************
           *        Program running with 16 parallel MPI-processes    *
           *              working on a common directory               *
           ************************************************************

------------------------------------------------------------------------------
                              ORCA PROPERTY CALCULATIONS
------------------------------------------------------------------------------

GBWName                                 ... orca.gbw
Number of atoms                         ...      7
Number of basis functions               ...    182
Max core memory                         ...   1024 MB

Electric properties:
Dipole moment                           ... YES
Quadrupole moment                       ...  NO
Static polarizability (Dipole/Dipole)   ...  NO
Static polarizability (Dipole/Quad.)    ...  NO
Static polarizability (Quad./Quad.)     ...  NO
Static polarizability (Velocity)        ...  NO

Atomic electric properties:
Dipole moment                           ...  NO
Quadrupole moment                       ...  NO
Static polarizability                   ...  NO

Choice of electric origin               ... Center of mass
Position of electric origin             ...    -0.017134    -0.037450    -0.000010

General magnetic properties:
Magnetizability                         ...  NO

EPR properties:
g-Tensor (aka g-matrix)                 ...  NO
Zero-Field splitting spin-orbit         ...  NO
Zero-field splitting spin-spin          ...  NO
Hyperfine couplings                     ...  NO (   0 nuclei)
Quadrupole couplings                    ...  NO (   0 nuclei)
Contact density                         ...  NO (   0 nuclei)

NMR properties:
Chemical shifts                         ...  NO (   0 nuclei)
Spin-rotation constants                 ...  NO (   0 nuclei)
Spin-spin couplings                     ...  NO (   0 nuclei,    0 pairs)

Choice of magnetic origin               ... GIAO
Position of magnetic origin             ...     0.000000     0.000000     0.000000

Properties with geometric perturbations:
SCF Hessian                             ...  NO
IR spectrum                             ...  NO
VCD spectrum                            ...  NO
X-ray spectroscopy properties:
SCF XES/XAS/RIXS spectra                ...  NO


-------------
DIPOLE MOMENT
-------------

Method             : SCF
Type of density    : Electron Density
Multiplicity       :   3
Irrep              :   0
Energy             :  -153.6147415093118411 Eh
Relativity type    : 
Basis              : AO
                                X                 Y                 Z
Electronic contribution:     -0.878316748       2.454220618      -0.000036922
Nuclear contribution   :      0.055554727      -2.363874525       0.000031866
                        -----------------------------------------
Total Dipole Moment    :     -0.822762022       0.090346093      -0.000005056
                        -----------------------------------------
Magnitude (a.u.)       :      0.827707533
Magnitude (Debye)      :      2.103865353



--------------------
Rotational spectrum 
--------------------
 
Rotational constants in cm-1:             0.901480             0.711895             0.474137 
Rotational constants in MHz :         27025.687216         21342.061488         14214.255722 

Dipole components along the rotational axes: 
x,y,z [a.u.] :    -0.818458    -0.123395    -0.000021 
x,y,z [Debye]:    -2.080355    -0.313644    -0.000053 

 

-------------
DIPOLE MOMENT
-------------

Method             : TDA/CIS
Type of density    : Electron Density
Level              : Relaxed density
State              :   2
Multiplicity       :   3
Irrep              :   0
Energy             :     0.0000000000000000 Eh
Relativity type    : 
Basis              : AO
                                X                 Y                 Z
Electronic contribution:     -0.297846709       2.790903502      -0.007487445
Nuclear contribution   :      0.055554727      -2.363874525       0.000031866
                        -----------------------------------------
Total Dipole Moment    :     -0.242291982       0.427028977      -0.007455579
                        -----------------------------------------
Magnitude (a.u.)       :      0.491034355
Magnitude (Debye)      :      1.248110141



--------------------
Rotational spectrum 
--------------------
 
Rotational constants in cm-1:             0.901480             0.711895             0.474137 
Rotational constants in MHz :         27025.687216         21342.061488         14214.255722 

Dipole components along the rotational axes: 
x,y,z [a.u.] :    -0.343582     0.350729    -0.007450 
x,y,z [Debye]:    -0.873315     0.891483    -0.018937 

 

Dipole moment calculation done in   0.0 sec 

Maximum memory used throughout the entire PROP-calculation: 7.6 MB
[1740998953.425571] [ohm:3190448:0]        ib_iface.c:1059 UCX  ERROR ibv_create_cq(cqe=256) failed: Connection timed out
[1740998953.425592] [ohm:3190450:0]        ib_iface.c:1059 UCX  ERROR ibv_create_cq(cqe=256) failed: Connection timed out
[1740998953.425884] [ohm:3190452:0]        ib_iface.c:1059 UCX  ERROR ibv_create_cq(cqe=256) failed: Connection timed out
[1740998953.426735] [ohm:3190455:0]        ib_iface.c:1059 UCX  ERROR ibv_create_cq(cqe=256) failed: Connection timed out
[1740998953.426753] [ohm:3190446:0]        ib_iface.c:1059 UCX  ERROR ibv_create_cq(cqe=256) failed: Connection timed out
[1740998953.428869] [ohm:3190462:0]        ib_iface.c:1059 UCX  ERROR ibv_create_cq(cqe=256) failed: Connection timed out
[1740998953.431045] [ohm:3190445:0]        ib_iface.c:1059 UCX  ERROR ibv_create_cq(cqe=256) failed: Connection timed out
[1740998953.431707] [ohm:3190449:0]        ib_iface.c:1059 UCX  ERROR ibv_create_cq(cqe=256) failed: Connection timed out
[1740998953.431701] [ohm:3190451:0]        ib_iface.c:1059 UCX  ERROR ibv_create_cq(cqe=256) failed: Connection timed out
[1740998953.432437] [ohm:3190447:0]        ib_iface.c:1059 UCX  ERROR ibv_create_cq(cqe=256) failed: Connection timed out
[1740998953.432702] [ohm:3190453:0]        ib_iface.c:1059 UCX  ERROR ibv_create_cq(cqe=256) failed: Connection timed out
[1740998953.434426] [ohm:3190470:0]        ib_iface.c:1059 UCX  ERROR ibv_create_cq(cqe=256) failed: Connection timed out
[1740998953.437034] [ohm:3190474:0]        ib_iface.c:1059 UCX  ERROR ibv_create_cq(cqe=256) failed: Connection timed out
[1740998953.437110] [ohm:3190458:0]        ib_iface.c:1059 UCX  ERROR ibv_create_cq(cqe=256) failed: Connection timed out
[1740998953.437854] [ohm:3190466:0]        ib_iface.c:1059 UCX  ERROR ibv_create_cq(cqe=256) failed: Connection timed out
[1740998953.438298] [ohm:3190472:0]        ib_iface.c:1059 UCX  ERROR ibv_create_cq(cqe=256) failed: Connection timed out

--------------------------------
SUGGESTED CITATIONS FOR THIS RUN
--------------------------------

Below you find a list of papers that are relevant to this ORCA run
We neither can nor want to force you to cite these papers, but we appreciate if you do
You receive ORCA, which is the product of decades of hard work by many enthusiastic individuals, for free
The only thing we kindly ask in return is that you cite our papers,
We deeply appreciate it, if you show your appreciation for ORCA by not just citing the generic ORCA reference.

Please note that relegating all ORCA citations to the supporting information does *not* help us.
SI sections are not indexed - citations you put there will not count into any citation statistics
But we need these citations in order to attract the funding resources that allow us to do what we are doing

Therefore, if you are a happy ORCA user, please consider citing a few of the papers listed below in the main body of your paper

In addition to the list printed below, the program has created the file orca.bibtex that contains the list in bibtex format
You can import this file easily into all common literature databanks and citation aid programs


List of essential papers. We consider these as the minimum necessary citations

  1. Neese,F.
     Software update: the ORCA program system, version 5.0
     WIRES Comput. Molec. Sci., 2022 12(1)e1606
     doi.org/10.1002/wcms.1606

List of papers to cite with high priority. The work reported in these papers was absolutely
necessary for this run to complete.
Our perspective: the developers of density functionals and basis sets usually get cited in chemistry papers
Good! But without the algorithms to do something with them, the functionals or basis sets would not do anything.
Hence, in our opinion, the algorithm design and method developments papers are equally worthy of getting cited

  1. Neese,F.; Olbrich,G.
     Efficient use of the resolution of the identity approximation in time-dependent density functional calculations with hybrid density functionals
     Chem. Phys. Lett., 2002 362 170-178
     doi.org/10.1016/s0009-2614(02)01053-9
  2. Neese,F.
     An improvement of the resolution of the identity approximation for the formation of the Coulomb matrix
     J. Comp. Chem., 2003 24(14)1740-1747
     doi.org/10.1002/jcc.10318
  3. Neese,F.; Wennmohs,F.; Hansen,A.; Becker,U.
     Efficient, approximate and parallel Hartree-Fock and hybrid DFT calculations. A 'chain-of-spheres' algorithm for the Hartree-Fock exchange
     Chem. Phys., 2009 356(1-3)98-109
     doi.org/10.1016/j.chemphys.2008.10.036
  4. Petrenko,T.; Kossmann,S.; Neese,F.
     Efficient time-dependent density functional theory approximations for hybrid density functionals: Analytical gradients and parallelization
     J. Chem. Phys., 2011 134 054116
     doi.org/10.1063/1.3533441
  5. Helmich-Paris,B.; de Souza,B.; Neese,F.; Izsák,R.
     An improved chain of spheres for exchange algorithm
     J. Chem. Phys., 2021 155 104109
     doi.org/doi: 10.1063/5.0058766.
  6. Neese,F.
     The SHARK Integral Generation and Digestion System
     J. Comp. Chem., 2022  1-16
     doi.org/10.1002/jcc.26942
  7. Lehtola,S.; Steigemann,C.; Oliveira,M.; Marques,M.
     Recent developments in Libxc - A comprehensive library of functionals for density functional theory
     Software X, 2018 7 
     doi.org/10.1016/j.softx.2017.11.002
  8. Grimme,S.; Antony,J.; Ehrlich,S.; Krieg,H.
     A consistent and accurate ab initio parametrization of density functional dispersion correction (DFT-D) for the 94 elements H-Pu
     J. Chem. Phys., 2010 132 154104-XXXX
     doi.org/10.1063/1.3382344
  9. Grimme,S.; Ehrlich,S.; Goerigk,L.
     Effect of the damping function in dispersion corrected density functional theory
     J. Comput. Chem., 2011 32(7)1456-1465
     doi.org/10.1002/jcc.21759

List of suggested additional citations. These are papers that are important in the 'surrounding' of 
of this run, or papers that preceded the highly important papers. If you like your results we are grateful for a citation.

  1. Izsak,R.; Neese,F.
     An overlap fitted chain of spheres exchange method
     J. Chem. Phys., 2011 135 144105
     doi.org/10.1063/1.3646921
  2. Izsak,R.; Hansen,A.; Neese,F.
     The resolution of identity and chain of spheres approximations for the LPNO-CCSD singles Fock term
     Molec. Phys., 2012 110 2413-2417
     doi.org/10.1080/00268976.2012.687466
  3. Neese,F.
     The ORCA program system
     WIRES Comput. Molec. Sci., 2012 2(1)73-78
     doi.org/10.1002/wcms.81
  4. Izsak,R.; Neese,F.; Klopper,W.
     Robust fitting techniques in the chain of spheres approximation to the Fock exchange: The role of the complementary space
     J. Chem. Phys., 2013 139 
     doi.org/10.1063/1.4819264
  5. Neese,F.
     Software update: the ORCA program system, version 4.0
     WIRES Comput. Molec. Sci., 2018 8(1)1-6
     doi.org/10.1002/wcms.1327
  6. Neese,F.; Wennmohs,F.; Becker,U.; Riplinger,C.
     The ORCA quantum chemistry program package
     J. Chem. Phys., 2020 152 Art. No. L224108
     doi.org/10.1063/5.0004608

List of optional additional citations

  1. Neese,F.
     Approximate second-order SCF convergence for spin unrestricted wavefunctions
     Chem. Phys. Lett., 2000 325(1-3)93-98
     doi.org/10.1016/s0009-2614(00)00662-x

Timings for individual modules:

Sum of individual times          ...       20.786 sec (=   0.346 min)
Startup calculation              ...        0.980 sec (=   0.016 min)   4.7 %
SCF iterations                   ...       10.204 sec (=   0.170 min)  49.1 %
Property integrals               ...        0.656 sec (=   0.011 min)   3.2 %
Property calculations            ...        0.699 sec (=   0.012 min)   3.4 %
CIS module                       ...        8.247 sec (=   0.137 min)  39.7 %
                             ****ORCA TERMINATED NORMALLY****
TOTAL RUN TIME: 0 days 0 hours 0 minutes 21 seconds 496 msec
