7
Properties=species:S:1:pos:R:3:momenta:R:3:forces:R:3 Coordinates=T from=T ORCA-job=T orca=T E=T -153.798269612488=T energy=-4183.564737830712 free_energy=-4183.564737830712 stress="-8.128633550938251e-06 -8.240754885953732e-06 -3.8947410229470135e-07 -8.240754885953732e-06 -1.6957682179751863e-05 -2.941854920796591e-07 -3.8947410229470135e-07 -2.941854920796591e-07 -2.530994039096096e-06" pbc="F F F"
O        0.41408490       1.06391977      -0.01310988       0.15313457       0.85270668      -0.37735076       0.84154153       1.85431852       0.00406293
C        0.61188311      -0.28163453       0.00138500      -0.19500727      -0.45943810       0.08383390       0.04514036      -0.18829578       0.16049946
C       -0.75652623      -0.75622882       0.00819875      -0.41384553      -1.15847989       0.38850930      -0.67776072      -1.26635088       0.07474800
H        1.20880391      -0.54911861       0.87600438       0.17726662       0.28814462      -0.09441491       0.09390861      -0.04819252       0.19012741
H        1.23333744      -0.54999431      -0.85114885       0.22251925       0.23976107       0.00503638       0.06132711      -0.17244686      -0.29882017
H       -1.30236316      -0.71313296      -0.91159776      -0.00057833       0.18652230      -0.04923523      -0.21791434      -0.08375247      -0.09929402
H       -1.28762723      -0.72627003       0.94307816       0.05651069       0.05078332       0.04362133      -0.14624256      -0.09528001      -0.03132360
