
                                 *****************
                                 * O   R   C   A *
                                 *****************

                                            #,                                       
                                            ###                                      
                                            ####                                     
                                            #####                                    
                                            ######                                   
                                           ########,                                 
                                     ,,################,,,,,                         
                               ,,#################################,,                 
                          ,,##########################################,,             
                       ,#########################################, ''#####,          
                    ,#############################################,,   '####,        
                  ,##################################################,,,,####,       
                ,###########''''           ''''###############################       
              ,#####''   ,,,,##########,,,,          '''####'''          '####       
            ,##' ,,,,###########################,,,                        '##       
           ' ,,###''''                  '''############,,,                           
         ,,##''                                '''############,,,,        ,,,,,,###''
      ,#''                                            '''#######################'''  
     '                                                          ''''####''''         
             ,#######,   #######,   ,#######,      ##                                
            ,#'     '#,  ##    ##  ,#'     '#,    #''#        ,####,   ,####,        
            ##       ##  ##   ,#'  ##            #'  '#       #'       #'  '#        
            ##       ##  #######   ##           ,######,      #####,   #    #        
            '#,     ,#'  ##    ##  '#,     ,#' ,#      #,     #,   #   #,  ,#        
             '#######'   ##     ##  '#######'  #'      '#     '####' # '####'        



                #########################################################
                #                        -***-                          #
                #          Department of theory and spectroscopy        #
                #                                                       #
                #                      Frank Neese                      #
                #                                                       #
                #     Directorship, Architecture, Infrastructure        #
                #                    SHARK, DRIVERS                     #
                #        Core code/Algorithms in most modules           #
                #                                                       #
                #        Max Planck Institute fuer Kohlenforschung      #
                #                Kaiser Wilhelm Platz 1                 #
                #                 D-45470 Muelheim/Ruhr                 #
                #                      Germany                          #
                #                                                       #
                #                  All rights reserved                  #
                #                        -***-                          #
                #########################################################


                         Program Version 6.0.0  -   RELEASE  -


 With contributions from (in alphabetic order):
   Daniel Aravena         : Magnetic Suceptibility
   Michael Atanasov       : Ab Initio Ligand Field Theory (pilot matlab implementation)
   Alexander A. Auer      : GIAO ZORA, VPT2 properties, NMR spectrum
   Ute Becker             : All parallelization in ORCA, NUMFREQ, NUMCALC
   Giovanni Bistoni       : ED, misc. LED, open-shell LED, HFLD
   Martin Brehm           : Molecular dynamics
   Dmytro Bykov           : pre 5.0 version of the SCF Hessian
   Marcos Casanova-Páez   : Triplet and SCS-CIS(D). UHF-(DLPNO)-IP/EA/STEOM-CCSD. UHF-CVS-IP/STEOM-CCSD
   Vijay G. Chilkuri      : MRCI spin determinant printing, contributions to CSF-ICE
   Pauline Colinet        : FMM embedding
   Dipayan Datta          : RHF DLPNO-CCSD density
   Achintya Kumar Dutta   : EOM-CC, STEOM-CC
   Nicolas Foglia         : Exact transition moments, OPA infrastructure, MCD improvements
   Dmitry Ganyushin       : Spin-Orbit,Spin-Spin,Magnetic field MRCI
   Miquel Garcia          : C-PCM and meta-GGA Hessian, CCSD/C-PCM, Gaussian charge scheme
   Tiago L. C. Gouveia    : GS-ROHF, GS-ROCIS
   Yang Guo               : DLPNO-NEVPT2, F12-NEVPT2, CIM, IAO-localization
   Andreas Hansen         : Spin unrestricted coupled pair/coupled cluster methods
   Ingolf Harden          : AUTO-CI MPn and infrastructure 
   Benjamin Helmich-Paris : MC-RPA, TRAH-(SCF,CASSCF), AVAS, COSX integrals, SCF dyn. polar.
   Lee Huntington         : MR-EOM, pCC
   Robert Izsak           : Overlap fitted RIJCOSX, COSX-SCS-MP3, EOM
   Riya Kayal             : Wick's Theorem for AUTO-CI, AUTO-CI UHF-CCSDT
   Emily Kempfer          : AUTO-CI, RHF CISDT and CCSDT
   Christian Kollmar      : KDIIS, OOCD, Brueckner-CCSD(T), CCSD density, CASPT2, CASPT2-K, improved NEVPT2
   Axel Koslowski         : Symmetry handling
   Simone Kossmann        : Meta GGA functionals, TD-DFT gradient, OOMP2, (MP2 Hessian; deprecated post 5.0)
   Lucas Lang             : DCDCAS
   Marvin Lechner         : AUTO-CI (C++ implementation), FIC-MRCC
   Spencer Leger          : CASSCF response
   Dagmar Lenk            : GEPOL surface, SMD, ORCA-2-JSON
   Dimitrios Liakos       : Extrapolation schemes; Compound Job, initial MDCI parallelization
   Dimitrios Manganas     : Further ROCIS development; embedding schemes. LFT, Crystal Embedding
   Dimitrios Pantazis     : SARC Basis sets
   Anastasios Papadopoulos: AUTO-CI, single reference methods and gradients
   Taras Petrenko         : pre 6.0 DFT Hessian and TD-DFT gradient, (ASA, deprecated), ECA, 1-Electron XAS/XES, NRVS
   Peter Pinski           : DLPNO-MP2, DLPNO-MP2 Gradient
   Christoph Reimann      : Effective Core Potentials
   Marius Retegan         : Local ZFS, SOC
   Christoph Riplinger    : Optimizer, TS searches, QM/MM, DLPNO-CCSD(T), (RO)-DLPNO pert. Triples
   Michael Roemelt        : Original ROCIS implementation
   Masaaki Saitow         : Open-shell DLPNO-CCSD energy and density
   Barbara Sandhoefer     : DKH picture change effects
   Kantharuban Sivalingam : CASSCF convergence/infrastructure, NEVPT2 and variants, FIC-MRCI
   Bernardo de Souza      : ESD, SOC TD-DFT
   Georgi Stoychev        : AutoAux, RI-MP2 NMR, DLPNO-MP2 response, X2C
   Van Anh Tran           : RI-MP2 g-tensors
   Willem Van den Heuvel  : Paramagnetic NMR
   Zikuan Wang            : NOTCH, Electric field optimization 
   Frank Wennmohs         : Technical directorship and infrastructure
   Hang Xu                : AUTO-CI-Response properties 


 We gratefully acknowledge several colleagues who have allowed us to
 interface, adapt or use parts of their codes:
   Stefan Grimme, W. Hujo, H. Kruse, P. Pracht,  : VdW corrections, initial TS optimization,
                  C. Bannwarth, S. Ehlert,         DFT functionals, gCP, sTDA/sTD-DF
                  L. Wittmann, M. Mueller
   Ed Valeev, F. Pavosevic, A. Kumar             : LibInt (2-el integral package), F12 methods
   Garnet Chan, S. Sharma, J. Yang, R. Olivares  : DMRG
   Ulf Ekstrom                                   : XCFun DFT Library
   Mihaly Kallay                                 : mrcc  (arbitrary order and MRCC methods)
   Frank Weinhold                                : gennbo (NPA and NBO analysis)
   Simon Mueller                                 : openCOSMO-RS
   Christopher J. Cramer and Donald G. Truhlar   : smd solvation model
   Lars Goerigk                                  : TD-DFT with DH, B97 family of functionals
   V. Asgeirsson, H. Jonsson                     : NEB implementation
   FAccTs GmbH                                   : IRC, NEB, NEB-TS, DLPNO-Multilevel, CI-OPT
                                                   MM, QMMM, 2- and 3-layer-ONIOM, Crystal-QMMM,
                                                   LR-CPCM, SF, NACMEs, symmetry and pop. for TD-DFT,
                                                   nearIR, NL-DFT gradient (VV10), updates on ESD,
                                                   ML-optimized integration grids, MBIS, APM,
                                                   GOAT, DOCKER, SOLVATOR, interface openCOSMO-RS
   S Lehtola, MJT Oliveira, MAL Marques          : LibXC Library
   Liviu Ungur et al                             : ANISO software


 Your calculation uses the libint2 library for the computation of 2-el integrals
 For citations please refer to: http://libint.valeyev.net

 Your ORCA version has been built with support for libXC version: 6.2.2
 For citations please refer to: https://libxc.gitlab.io

 This ORCA versions uses:
   CBLAS   interface :  Fast vector & matrix operations
   LAPACKE interface :  Fast linear algebra routines
   SCALAPACK package :  Parallel linear algebra routines
   Shared memory     :  Shared parallel matrices
   BLAS/LAPACK       :  OpenBLAS 0.3.27  USE64BITINT DYNAMIC_ARCH NO_AFFINITY Zen SINGLE_THREADED
        Core in use  :  Zen
   Copyright (c) 2011-2014, The OpenBLAS Project


Your calculation utilizes the atom-pairwise dispersion correction
with the Becke-Johnson damping scheme (D3BJ)


Warning: RI is on but no J-basis has been assigned. Assigning Def2/J (nothing to worry about!)
================================================================================

----- Orbital basis set information -----
Your calculation utilizes the basis: def2-TZVPPD
   F. Weigend and R. Ahlrichs, Phys. Chem. Chem. Phys. 7, 3297 (2005).
   D. Rappoport and F. Furche, J. Chem. Phys. 133, 134105 (2010)
   D. Rappoport, J. Chem. Phys. 155, 124102 (2021).

----- AuxJ basis set information -----
Your calculation utilizes the auxiliary basis: def2/J
   F. Weigend, Phys. Chem. Chem. Phys. 8, 1057 (2006).

================================================================================
                                        WARNINGS
                       Please study these warnings very carefully!
================================================================================

Using LibXC functional ID 531 : wB97M-V exchange-correlation functional
[ 1]  N. Mardirossian and M. Head-Gordon.,  J. Chem. Phys. 144, 214110 (2016)
Using LibXC functional ID 531 : wB97M-V exchange-correlation functional
[ 1]  N. Mardirossian and M. Head-Gordon.,  J. Chem. Phys. 144, 214110 (2016)

WARNING: B97M-V or wB97M-V functional requested.
  ===> : libXC variant has now been activated.
         Any manually given DFX/HFX/RangeSep scaling parameters are IGNORED!

Your calculation utilizes LibXC
 by S Lehtola, C Steigemann, MJT Oliveira & MAL Marques
Please cite in your paper:
 S Lehtola, C Steigemann, MJT Oliveira & MAL Marques, SoftwareX, 7, (2018), 1.
   


WARNING: your system is open-shell and RHF/RKS was chosen
  ===> : WILL SWITCH to UHF/UKS

INFO   : Checking CIS options ...

WARNING: CIS/ROCIS methods need fully converged wavefunctions
  ===> : Setting SCFConvForced true
         You can overwrite this default with %scf ConvForced false 


================================================================================
                                       INPUT FILE
================================================================================
NAME = orca.inp
|  1> ! EnGrad wB97M-D3BJ def2-TZVPPD 
|  2> %pal nprocs 8 end%pal nprocs 16 end 
|  3> %tddft 
|  4>  sf true 
|  5>  nroots 2 Iroot 2 end 
|  6> *xyz 0 3 
|  7> O   0.06988424912635 0.82773780832439 -8.437649955e-05
|  8> C   0.69654339356255 -0.40027545816402 8.518516759e-05
|  9> C   -0.72781655741658 -0.50757614322786 -0.00011282781946
| 10> H   1.24261873519864 -0.65378694010116 0.90603193145925
| 11> H   1.24243119341592 -0.65396835473702 -0.90595536939957
| 12> H   -1.26087681450408 -0.66547014201549 -0.92391057112193
| 13> H   -1.2605841993828 -0.66506077007884 0.92394602821367
| 14> *
| 15> 
| 16>                          ****END OF INPUT****
================================================================================

                     *******************************
                     * Energy+Gradient Calculation *
                     *******************************

---------------------------------
CARTESIAN COORDINATES (ANGSTROEM)
---------------------------------
  O      0.069884    0.827738   -0.000084
  C      0.696543   -0.400275    0.000085
  C     -0.727817   -0.507576   -0.000113
  H      1.242619   -0.653787    0.906032
  H      1.242431   -0.653968   -0.905955
  H     -1.260877   -0.665470   -0.923911
  H     -1.260584   -0.665061    0.923946

----------------------------
CARTESIAN COORDINATES (A.U.)
----------------------------
  NO LB      ZA    FRAG     MASS         X           Y           Z
   0 O     8.0000    0    15.999    0.132062    1.564198   -0.000159
   1 C     6.0000    0    12.011    1.316276   -0.756411    0.000161
   2 C     6.0000    0    12.011   -1.375374   -0.959180   -0.000213
   3 H     1.0000    0     1.008    2.348209   -1.235478    1.712152
   4 H     1.0000    0     1.008    2.347855   -1.235821   -1.712008
   5 H     1.0000    0     1.008   -2.382712   -1.257556   -1.745938
   6 H     1.0000    0     1.008   -2.382159   -1.256783    1.746005

--------------------------------
INTERNAL COORDINATES (ANGSTROEM)
--------------------------------
 O      0   0   0     0.000000000000     0.00000000     0.00000000
 C      1   0   0     1.378665403471     0.00000000     0.00000000
 C      2   1   0     1.428395864660    67.27273223     0.00000000
 H      2   1   3     1.087752663676   115.84156030   247.71381086
 H      2   1   3     1.087778958392   115.83231543   112.25669014
 H      3   2   1     1.078186450977   120.27343107    97.23910729
 H      3   2   1     1.078205702746   120.23723252   262.77902667

---------------------------
INTERNAL COORDINATES (A.U.)
---------------------------
 O      0   0   0     0.000000000000     0.00000000     0.00000000
 C      1   0   0     2.605300042872     0.00000000     0.00000000
 C      2   1   0     2.699276995033    67.27273223     0.00000000
 H      2   1   3     2.055554635790   115.84156030   247.71381086
 H      2   1   3     2.055604325603   115.83231543   112.25669014
 H      3   2   1     2.037477113651   120.27343107    97.23910729
 H      3   2   1     2.037513494222   120.23723252   262.77902667

---------------------
BASIS SET INFORMATION
---------------------
There are 3 groups of distinct atoms

 Group   1 Type O   : 12s7p3d1f contracted to 6s4p3d1f pattern {621111/4111/111/1}
 Group   2 Type C   : 12s6p3d1f contracted to 6s3p3d1f pattern {621111/411/111/1}
 Group   3 Type H   : 5s3p1d contracted to 3s3p1d pattern {311/111/1}

Atom   0O    basis set group =>   1
Atom   1C    basis set group =>   2
Atom   2C    basis set group =>   2
Atom   3H    basis set group =>   3
Atom   4H    basis set group =>   3
Atom   5H    basis set group =>   3
Atom   6H    basis set group =>   3
---------------------------------
AUXILIARY/J BASIS SET INFORMATION
---------------------------------
There are 3 groups of distinct atoms

 Group   1 Type O   : 12s5p4d2f1g contracted to 6s4p3d1f1g pattern {711111/2111/211/2/1}
 Group   2 Type C   : 12s5p4d2f1g contracted to 6s4p3d1f1g pattern {711111/2111/211/2/1}
 Group   3 Type H   : 5s2p1d contracted to 3s1p1d pattern {311/2/1}

Atom   0O    basis set group =>   1
Atom   1C    basis set group =>   2
Atom   2C    basis set group =>   2
Atom   3H    basis set group =>   3
Atom   4H    basis set group =>   3
Atom   5H    basis set group =>   3
Atom   6H    basis set group =>   3
[1740999249.310731] [ohm:3199335:0]        ib_iface.c:1059 UCX  ERROR ibv_create_cq(cqe=256) failed: Connection timed out
[1740999249.310749] [ohm:3199339:0]        ib_iface.c:1059 UCX  ERROR ibv_create_cq(cqe=256) failed: Connection timed out
[1740999249.310883] [ohm:3199337:0]        ib_iface.c:1059 UCX  ERROR ibv_create_cq(cqe=256) failed: Connection timed out
[1740999249.310970] [ohm:3199347:0]        ib_iface.c:1059 UCX  ERROR ibv_create_cq(cqe=256) failed: Connection timed out
[1740999249.351595] [ohm:3199341:0]        ib_iface.c:1059 UCX  ERROR ibv_create_cq(cqe=256) failed: Connection timed out
[1740999249.351596] [ohm:3199356:0]        ib_iface.c:1059 UCX  ERROR ibv_create_cq(cqe=256) failed: Connection timed out
[1740999249.352095] [ohm:3199362:0]        ib_iface.c:1059 UCX  ERROR ibv_create_cq(cqe=256) failed: Connection timed out
[1740999249.352095] [ohm:3199344:0]        ib_iface.c:1059 UCX  ERROR ibv_create_cq(cqe=256) failed: Connection timed out
[1740999249.352307] [ohm:3199351:0]        ib_iface.c:1059 UCX  ERROR ibv_create_cq(cqe=256) failed: Connection timed out
[1740999249.352305] [ohm:3199360:0]        ib_iface.c:1059 UCX  ERROR ibv_create_cq(cqe=256) failed: Connection timed out
[1740999249.352307] [ohm:3199334:0]        ib_iface.c:1059 UCX  ERROR ibv_create_cq(cqe=256) failed: Connection timed out
[1740999249.352625] [ohm:3199336:0]        ib_iface.c:1059 UCX  ERROR ibv_create_cq(cqe=256) failed: Connection timed out
[1740999249.352800] [ohm:3199338:0]        ib_iface.c:1059 UCX  ERROR ibv_create_cq(cqe=256) failed: Connection timed out
[1740999249.352800] [ohm:3199340:0]        ib_iface.c:1059 UCX  ERROR ibv_create_cq(cqe=256) failed: Connection timed out
[1740999249.352800] [ohm:3199342:0]        ib_iface.c:1059 UCX  ERROR ibv_create_cq(cqe=256) failed: Connection timed out
[1740999249.352800] [ohm:3199346:0]        ib_iface.c:1059 UCX  ERROR ibv_create_cq(cqe=256) failed: Connection timed out


           ************************************************************
           *        Program running with 16 parallel MPI-processes    *
           *              working on a common directory               *
           ************************************************************
------------------------------------------------------------------------------
                             ORCA STARTUP CALCULATIONS
                           -- RI-GTO INTEGRALS CHOSEN --
------------------------------------------------------------------------------
------------------------------------------------------------------------------
                   ___                                                        
                  /   \      - P O W E R E D   B Y -                         
                 /     \                                                     
                 |  |  |   _    _      __       _____    __    __             
                 |  |  |  | |  | |    /  \     |  _  \  |  |  /  |          
                  \  \/   | |  | |   /    \    | | | |  |  | /  /          
                 / \  \   | |__| |  /  /\  \   | |_| |  |  |/  /          
                |  |  |   |  __  | /  /__\  \  |    /   |      \           
                |  |  |   | |  | | |   __   |  |    \   |  |\   \          
                \     /   | |  | | |  |  |  |  | |\  \  |  | \   \       
                 \___/    |_|  |_| |__|  |__|  |_| \__\ |__|  \__/        
                                                                              
                      - O R C A' S   B I G   F R I E N D -                    
                                      &                                       
                       - I N T E G R A L  F E E D E R -                       
                                                                              
 v1 FN, 2020, v2 2021, v3 2022-2024                                           
------------------------------------------------------------------------------


----------------------
SHARK INTEGRAL PACKAGE
----------------------

Number of atoms                             ...      7
Number of basis functions                   ...    182
Number of shells                            ...     68
Maximum angular momentum                    ...      3
Integral batch strategy                     ... SHARK/LIBINT Hybrid
RI-J (if used) integral strategy            ... SPLIT-RIJ (Revised 2003 algorithm where possible)
Printlevel                                  ...      1
Contraction scheme used                     ... SEGMENTED contraction
Prescreening option                         ... SCHWARTZ
   Thresh                                   ... 2.500e-11
   Tcut                                     ... 2.500e-12
   Tpresel                                  ... 2.500e-12 
Coulomb Range Separation                    ... NOT USED
Exchange Range Separation                   ... Long Range
   Mu parameter                             ... 3.000e-01
   Scaling (regular/separated)              ... 1.500e-01 8.500e-01
Multipole approximations                    ... NOT USED
Finite Nucleus Model                        ... NOT USED
CABS basis                                  ... NOT available
Auxiliary Coulomb fitting basis             ... AVAILABLE
   # of basis functions in Aux-J            ...    191
   # of shells in Aux-J                     ...     65
   Maximum angular momentum in Aux-J        ...      4
Auxiliary J/K fitting basis                 ... NOT available
Auxiliary Correlation fitting basis         ... NOT available
Auxiliary 'external' fitting basis          ... NOT available

Checking pre-screening integrals            ... done (  0.0 sec) Dimension = 68
Check shell pair data                       ... done (  0.0 sec)
Shell pair information
Shell pair cut-off parameter TPreSel        ...   2.5e-12
Total number of shell pairs                 ...      2346
Shell pairs after pre-screening             ...      2342
Total number of primitive shell pairs       ...      5434
Primitive shell pairs kept                  ...      4922
          la=0 lb=0:    461 shell pairs
          la=1 lb=0:    660 shell pairs
          la=1 lb=1:    253 shell pairs
          la=2 lb=0:    390 shell pairs
          la=2 lb=1:    286 shell pairs
          la=2 lb=2:     91 shell pairs
          la=3 lb=0:     90 shell pairs
          la=3 lb=1:     66 shell pairs
          la=3 lb=2:     39 shell pairs
          la=3 lb=3:      6 shell pairs

Calculating one electron integrals          ... done (  0.0 sec)
Calculating RI/J V-Matrix + Cholesky decomp.... done (  0.0 sec)
Calculating Nuclear repulsion               ... done (  0.0 sec) ENN=     74.878344888259 Eh

Diagonalization of the overlap matrix:
Smallest eigenvalue                        ... 9.120e-06
Time for diagonalization                   ...    0.003 sec
Threshold for overlap eigenvalues          ... 1.000e-07
Number of eigenvalues below threshold      ... 0
Time for construction of square roots      ...    0.002 sec
Total time needed                          ...    0.005 sec

-------------------
DFT GRID GENERATION
-------------------

General Integration Accuracy     IntAcc      ... 4.388
Radial Grid Type                 RadialGrid  ... OptM3 with GC (2021)
Angular Grid (max. ang.)         AngularGrid ... 4 (Lebedev-302)
Angular grid pruning method      GridPruning ... 4 (adaptive)
Weight generation scheme         WeightScheme... mBecke (2022)
Basis function cutoff            BFCut       ... 1.0000e-11
Integration weight cutoff        WCut        ... 1.0000e-14
Partially contracted basis set               ... off
Rotationally invariant grid construction     ... off
Angular grids for H and He will be reduced by one unit
Diffuse basis detected: some atoms will have their outermost
                        angular grid increased by 1.

Total number of grid points                  ...    33058
Total number of batches                      ...      518
Average number of points per batch           ...       63
Average number of grid points per atom       ...     4723

--------------------
COSX GRID GENERATION
--------------------

GRIDX 1
-------
General Integration Accuracy     IntAcc      ... 3.816
Radial Grid Type                 RadialGrid  ... OptM3 with GC (2021)
Angular Grid (max. ang.)         AngularGrid ... 1 (Lebedev-50)
Angular grid pruning method      GridPruning ... 4 (adaptive)
Weight generation scheme         WeightScheme... mBecke (2022)
Basis function cutoff            BFCut       ... 1.0000e-11
Integration weight cutoff        WCut        ... 1.0000e-14
Partially contracted basis set               ... on
Rotationally invariant grid construction     ... off
Angular grids for H and He will be reduced by one unit
Diffuse basis detected: some atoms will have their outermost
                        angular grid increased by 1.

Total number of grid points                  ...     4172
Total number of batches                      ...       36
Average number of points per batch           ...      115
Average number of grid points per atom       ...      596
UseSFitting                                  ... on

GRIDX 2
-------
General Integration Accuracy     IntAcc      ... 4.020
Radial Grid Type                 RadialGrid  ... OptM3 with GC (2021)
Angular Grid (max. ang.)         AngularGrid ... 2 (Lebedev-110)
Angular grid pruning method      GridPruning ... 4 (adaptive)
Weight generation scheme         WeightScheme... mBecke (2022)
Basis function cutoff            BFCut       ... 1.0000e-11
Integration weight cutoff        WCut        ... 1.0000e-14
Partially contracted basis set               ... on
Rotationally invariant grid construction     ... off
Angular grids for H and He will be reduced by one unit
Diffuse basis detected: some atoms will have their outermost
                        angular grid increased by 1.

Total number of grid points                  ...    10256
Total number of batches                      ...       84
Average number of points per batch           ...      122
Average number of grid points per atom       ...     1465
UseSFitting                                  ... on

GRIDX 3
-------
General Integration Accuracy     IntAcc      ... 4.338
Radial Grid Type                 RadialGrid  ... OptM3 with GC (2021)
Angular Grid (max. ang.)         AngularGrid ... 3 (Lebedev-194)
Angular grid pruning method      GridPruning ... 4 (adaptive)
Weight generation scheme         WeightScheme... mBecke (2022)
Basis function cutoff            BFCut       ... 1.0000e-11
Integration weight cutoff        WCut        ... 1.0000e-14
Partially contracted basis set               ... on
Rotationally invariant grid construction     ... off
Angular grids for H and He will be reduced by one unit
Diffuse basis detected: some atoms will have their outermost
                        angular grid increased by 1.

Total number of grid points                  ...    23012
Total number of batches                      ...      184
Average number of points per batch           ...      125
Average number of grid points per atom       ...     3287
UseSFitting                                  ... on
Initializing property integral containers    ... done (  0.0 sec)

SHARK setup successfully completed in   0.3 seconds

Maximum memory used throughout the entire STARTUP-calculation: 13.8 MB
[1740999250.304691] [ohm:3199421:0]        ib_iface.c:1059 UCX  ERROR ibv_create_cq(cqe=256) failed: Connection timed out
[1740999250.319190] [ohm:3199419:0]        ib_iface.c:1059 UCX  ERROR ibv_create_cq(cqe=256) failed: Connection timed out
[1740999250.319196] [ohm:3199423:0]        ib_iface.c:1059 UCX  ERROR ibv_create_cq(cqe=256) failed: Connection timed out
[1740999250.319798] [ohm:3199428:0]        ib_iface.c:1059 UCX  ERROR ibv_create_cq(cqe=256) failed: Connection timed out
[1740999250.321136] [ohm:3199425:0]        ib_iface.c:1059 UCX  ERROR ibv_create_cq(cqe=256) failed: Connection timed out
[1740999250.323136] [ohm:3199420:0]        ib_iface.c:1059 UCX  ERROR ibv_create_cq(cqe=256) failed: Connection timed out
[1740999250.323132] [ohm:3199422:0]        ib_iface.c:1059 UCX  ERROR ibv_create_cq(cqe=256) failed: Connection timed out
[1740999250.323132] [ohm:3199418:0]        ib_iface.c:1059 UCX  ERROR ibv_create_cq(cqe=256) failed: Connection timed out
[1740999250.326407] [ohm:3199431:0]        ib_iface.c:1059 UCX  ERROR ibv_create_cq(cqe=256) failed: Connection timed out
[1740999250.329286] [ohm:3199426:0]        ib_iface.c:1059 UCX  ERROR ibv_create_cq(cqe=256) failed: Connection timed out
[1740999250.330751] [ohm:3199429:0]        ib_iface.c:1059 UCX  ERROR ibv_create_cq(cqe=256) failed: Connection timed out
[1740999250.330771] [ohm:3199424:0]        ib_iface.c:1059 UCX  ERROR ibv_create_cq(cqe=256) failed: Connection timed out
[1740999250.336655] [ohm:3199439:0]        ib_iface.c:1059 UCX  ERROR ibv_create_cq(cqe=256) failed: Connection timed out
[1740999250.339625] [ohm:3199433:0]        ib_iface.c:1059 UCX  ERROR ibv_create_cq(cqe=256) failed: Connection timed out
[1740999250.340564] [ohm:3199444:0]        ib_iface.c:1059 UCX  ERROR ibv_create_cq(cqe=256) failed: Connection timed out
[1740999250.346168] [ohm:3199447:0]        ib_iface.c:1059 UCX  ERROR ibv_create_cq(cqe=256) failed: Connection timed out


           ************************************************************
           *        Program running with 16 parallel MPI-processes    *
           *              working on a common directory               *
           ************************************************************
-------------------------------------------------------------------------------
                                 ORCA GUESS
                   Start orbitals & Density for SCF / CASSCF
-------------------------------------------------------------------------------

------------
SCF SETTINGS
------------
Hamiltonian:
 Density Functional     Method          .... DFT(GTOs)
  Functional kind                       .... Exchange-Correlation
  Functional name                       .... wB97M-V exchange-correlation functional
  Functional family                     .... Hybrid MGGA
  Functional refs                              
    [ 0] N. Mardirossian and M. Head-Gordon.,  J. Chem. Phys. 144, 214110 (2016), doi: 10.1063/1.4952647
  Fraction of HF Exchange (short range) .... 0.1500
  Fraction of HF Exchange (long range)  .... 1.0000
  Range separation parameter mu         .... 0.3000
  Functional external parameters        .... 17
    Parameter  0 _cx00      =  8.500000e-01 : u^00 coefficient for exchange
    Parameter  1 _cx01      =  1.007000e+00 : u^01 coefficient for exchange
    Parameter  2 _cx10      =  2.590000e-01 : u^10 coefficient for exchange
    Parameter  3 _css00     =  4.430000e-01 : u^00 coefficient for same-spin correlation
    Parameter  4 _css04     = -1.437000e+00 : u^04 coefficient for same-spin correlation
    Parameter  5 _css10     = -4.535000e+00 : u^10 coefficient for same-spin correlation
    Parameter  6 _css20     = -3.390000e+00 : u^20 coefficient for same-spin correlation
    Parameter  7 _css43     =  4.278000e+00 : u^43 coefficient for same-spin correlation
    Parameter  8 _cos00     =  1.000000e+00 : u^00 coefficient for opposite-spin correlation
    Parameter  9 _cos10     =  1.358000e+00 : u^10 coefficient for opposite-spin correlation
    Parameter 10 _cos20     =  2.924000e+00 : u^20 coefficient for opposite-spin correlation
    Parameter 11 _cos21     = -8.812000e+00 : u^21 coefficient for opposite-spin correlation
    Parameter 12 _cos60     = -1.390000e+00 : u^60 coefficient for opposite-spin correlation
    Parameter 13 _cos61     =  9.142000e+00 : u^61 coefficient for opposite-spin correlation
    Parameter 14 _alpha     =  1.000000e+00 : fraction of HF exchange
    Parameter 15 _beta      = -8.500000e-01 : fraction of short-range exchange
    Parameter 16 _omega     =  3.000000e-01 : range-separation constant
 Long-range corrected/Screened/Range-Separated Hybrid DFT is turned on
   Amount of maximum screened exact exchange              ....  0.850000
   Range separation parameter mu (erf(mu*r12)/r12)        ....  0.300000
 RI-approximation to the Coulomb term is turned on
   Number of AuxJ basis functions       .... 191
   RIJ-COSX (HFX calculated with COS-X)).... on


General Settings:
 Integral files         IntName         .... orca
 Hartree-Fock type      HFTyp           .... UHF
 Total Charge           Charge          ....    0
 Multiplicity           Mult            ....    3
 Number of Electrons    NEL             ....   24
 Basis Dimension        Dim             ....  182
 Nuclear Repulsion      ENuc            ....     74.8783448883 Eh

Convergence Acceleration:
 AO-DIIS                CNVDIIS         .... on
   Start iteration      DIISMaxIt       ....    12
   Startup error        DIISStart       ....  0.200000
   # of expansion vecs  DIISMaxEq       ....     5
   Bias factor          DIISBfac        ....   1.050
   Max. coefficient     DIISMaxC        ....  10.000
 MO-DIIS                CNVKDIIS        .... off
 Trust-Rad. Augm. Hess. CNVTRAH         .... auto
   Auto Start mean grad. ratio tolernc. ....  1.125000
   Auto Start start iteration           ....    50
   Auto Start num. interpolation iter.  ....    10
   Max. Number of Micro iterations      ....    24
   Max. Number of Macro iterations      .... Maxiter - #DIIS iter
   Number of Davidson start vectors     ....     2
   Converg. threshold    (grad. norm)   ....   1.000e-05
   Grad. Scal. Fac. for Micro threshold ....   0.100
   Minimum threshold for Micro iter.    ....   1.000e-02
   NR start threshold (gradient norm)   ....   1.000e-04
   Initial trust radius                 ....   0.400
   Minimum AH scaling param. (alpha)    ....   1.000
   Maximum AH scaling param. (alpha)    .... 1000.000
   Quad. conv. algorithm                .... NR
   White noise on init. David. guess    .... on
   Maximum white noise                  ....   0.010
   Pseudo random numbers                .... off
   Inactive MOs                         .... canonical
   Orbital update algorithm             .... Taylor
   Preconditioner                       .... Diag
   Full preconditioner red. dimension   ....   250
 SOSCF                  CNVSOSCF        .... on
   Start iteration      SOSCFMaxIt      ....   150
   Startup grad/error   SOSCFStart      ....  0.003300
   Hessian update       SOSCFHessUp     .... L-BFGS
 Level Shifting         CNVShift        .... on
   Level shift para.    LevelShift      ....    0.2500
   Turn off err/grad.   ShiftErr        ....    0.0010
 Zerner damping         CNVZerner       .... off
 Static damping         CNVDamp         .... on
   Fraction old density DampFac         ....    0.7000
   Max. Damping (<1)    DampMax         ....    0.9800
   Min. Damping (>=0)   DampMin         ....    0.0000
   Turn off err/grad.   DampErr         ....    0.1000

SCF Procedure:
 Maximum # iterations   MaxIter         ....   125
 SCF integral mode      SCFMode         .... Direct
   Integral package                     .... SHARK and LIBINT hybrid scheme
 Reset frequency        DirectResetFreq ....    20
 Integral Threshold     Thresh          ....  2.500e-11 Eh
 Primitive CutOff       TCut            ....  2.500e-12 Eh

Convergence Tolerance:
 Convergence Check Mode ConvCheckMode   .... Total+1el-Energy
 Convergence forced     ConvForced      .... 1
 Energy Change          TolE            ....  1.000e-08 Eh
 1-El. energy change                    ....  1.000e-05 Eh
 Orbital Gradient       TolG            ....  1.000e-05
 Orbital Rotation angle TolX            ....  1.000e-05
 DIIS Error             TolErr          ....  5.000e-07

------------------------------
INITIAL GUESS: MODEL POTENTIAL
------------------------------
Loading Hartree-Fock densities                     ... done
Calculating cut-offs                               ... done
Initializing the effective Hamiltonian             ... done
Setting up the integral package (SHARK)            ... done
Starting the Coulomb interaction                   ... done (   0.0 sec)
Making the grid                                    ... done (   0.0 sec)
Mapping shells                                     ... done
Starting the XC term evaluation                    ... done (   0.0 sec)
  promolecular density results
     # of electrons  =     23.997257180
     EX              =    -19.539390191
     EC              =     -0.781496506
     EX+EC           =    -20.320886697
Transforming the Hamiltonian                       ... done (   0.0 sec)
Diagonalizing the Hamiltonian                      ... done (   0.0 sec)
Back transforming the eigenvectors                 ... done (   0.0 sec)
Now organizing SCF variables                       ... done
                      ------------------
                      INITIAL GUESS DONE (   0.1 sec)
                      ------------------
             **** ENERGY FILE WAS UPDATED (orca.en.tmp) ****
Finished Guess after   0.5 sec
Maximum memory used throughout the entire GUESS-calculation: 9.7 MB
[1740999251.090488] [ohm:3199506:0]        ib_iface.c:1059 UCX  ERROR ibv_create_cq(cqe=256) failed: Connection timed out
[1740999251.091741] [ohm:3199502:0]        ib_iface.c:1059 UCX  ERROR ibv_create_cq(cqe=256) failed: Connection timed out
[1740999251.099993] [ohm:3199508:0]        ib_iface.c:1059 UCX  ERROR ibv_create_cq(cqe=256) failed: Connection timed out
[1740999251.119483] [ohm:3199511:0]        ib_iface.c:1059 UCX  ERROR ibv_create_cq(cqe=256) failed: Connection timed out
[1740999251.119798] [ohm:3199504:0]        ib_iface.c:1059 UCX  ERROR ibv_create_cq(cqe=256) failed: Connection timed out
[1740999251.131836] [ohm:3199515:0]        ib_iface.c:1059 UCX  ERROR ibv_create_cq(cqe=256) failed: Connection timed out
[1740999251.132243] [ohm:3199526:0]        ib_iface.c:1059 UCX  ERROR ibv_create_cq(cqe=256) failed: Connection timed out
[1740999251.132819] [ohm:3199530:0]        ib_iface.c:1059 UCX  ERROR ibv_create_cq(cqe=256) failed: Connection timed out
[1740999251.133388] [ohm:3199503:0]        ib_iface.c:1059 UCX  ERROR ibv_create_cq(cqe=256) failed: Connection timed out
[1740999251.133388] [ohm:3199505:0]        ib_iface.c:1059 UCX  ERROR ibv_create_cq(cqe=256) failed: Connection timed out
[1740999251.133420] [ohm:3199501:0]        ib_iface.c:1059 UCX  ERROR ibv_create_cq(cqe=256) failed: Connection timed out
[1740999251.133489] [ohm:3199507:0]        ib_iface.c:1059 UCX  ERROR ibv_create_cq(cqe=256) failed: Connection timed out
[1740999251.133558] [ohm:3199509:0]        ib_iface.c:1059 UCX  ERROR ibv_create_cq(cqe=256) failed: Connection timed out
[1740999251.134037] [ohm:3199513:0]        ib_iface.c:1059 UCX  ERROR ibv_create_cq(cqe=256) failed: Connection timed out
[1740999251.136332] [ohm:3199527:0]        ib_iface.c:1059 UCX  ERROR ibv_create_cq(cqe=256) failed: Connection timed out
[1740999251.136500] [ohm:3199520:0]        ib_iface.c:1059 UCX  ERROR ibv_create_cq(cqe=256) failed: Connection timed out


           ************************************************************
           *        Program running with 16 parallel MPI-processes    *
           *              working on a common directory               *
           ************************************************************

-------------------------------------------------------------------------------------------
                                      ORCA LEAN-SCF
                              memory conserving SCF solver
-------------------------------------------------------------------------------------------

----------------------------------------D-I-I-S--------------------------------------------
Iteration    Energy (Eh)           Delta-E    RMSDP     MaxDP     DIISErr   Damp  Time(sec)
-------------------------------------------------------------------------------------------
               ***  Starting incremental Fock matrix formation  ***
    1    -153.5524461660980080     0.00e+00  1.33e-03  9.26e-02  1.03e-01  0.700   0.4
    2    -153.5888185129809642    -3.64e-02  1.54e-03  1.45e-01  6.10e-02  0.700   0.3
                               ***Turning on AO-DIIS***
    3    -153.6080804356966496    -1.93e-02  1.25e-03  1.28e-01  3.05e-02  0.700   0.3
    4    -153.6197668883837935    -1.17e-02  3.40e-03  3.70e-01  2.23e-02  0.000   0.3
    5    -153.6463752928039810    -2.66e-02  1.01e-03  1.25e-01  8.86e-03  0.000   0.3
    6    -153.6469958684143933    -6.21e-04  9.31e-04  1.13e-01  6.16e-03  0.000   0.3
    7    -153.6474153372500098    -4.19e-04  6.15e-04  6.72e-02  3.40e-03  0.000   0.3
                              *** Initializing SOSCF ***
---------------------------------------S-O-S-C-F--------------------------------------
Iteration    Energy (Eh)           Delta-E    RMSDP     MaxDP     MaxGrad    Time(sec)
--------------------------------------------------------------------------------------
    8    -153.6476104908050786    -1.95e-04  3.80e-04  3.10e-02  1.81e-03     0.3
               *** Restarting incremental Fock matrix formation ***
    9    -153.6477133964081645    -1.03e-04  4.16e-04  3.54e-02  1.47e-03     0.4
   10    -153.6477670667115092    -5.37e-05  1.12e-03  9.94e-02  1.01e-03     0.4
   11    -153.6478196116938193    -5.25e-05  1.77e-04  1.25e-02  9.44e-04     0.4
   12    -153.6478269747554748    -7.36e-06  8.78e-05  1.10e-02  2.35e-04     0.3
   13    -153.6478284115401891    -1.44e-06  4.87e-05  3.58e-03  1.79e-04     0.3
   14    -153.6478288550174227    -4.43e-07  5.19e-05  3.14e-03  6.57e-05     0.3
   15    -153.6478290334287351    -1.78e-07  3.29e-05  2.05e-03  3.15e-05     0.3
   16    -153.6478290781325882    -4.47e-08  1.98e-05  1.18e-03  1.81e-05     0.3
   17    -153.6478290938141811    -1.57e-08  1.36e-05  1.37e-03  1.71e-05     0.3
   18    -153.6478291016765070    -7.86e-09  5.69e-06  4.61e-04  1.03e-05     0.3
                 **** Energy Check signals convergence ****

               *****************************************************
               *                     SUCCESS                       *
               *           SCF CONVERGED AFTER  18 CYCLES          *
               *****************************************************

Recomputing exchange energy using gridx3       ... done (    0.458 sec)
Old exchange energy                            :     -6.184523555 Eh
New exchange energy                            :     -6.184517313 Eh
Exchange energy change after final integration :      0.000006242 Eh
Total energy after final integration           :   -153.647822859 Eh
             **** ENERGY FILE WAS UPDATED (orca.en.tmp) ****

----------------
TOTAL SCF ENERGY
----------------

Total Energy       :       -153.64782285921981 Eh           -4180.96982 eV

Components:
Nuclear Repulsion  :         74.87834488825851 Eh            2037.54335 eV
Electronic Energy  :       -228.52617398993502 Eh           -6218.51334 eV
One Electron Energy:       -355.32629986604627 Eh           -9668.92018 eV
Two Electron Energy:        126.80012587611125 Eh            3450.40684 eV

Virial components:
Potential Energy   :       -307.38050644254326 Eh           -8364.24881 eV
Kinetic Energy     :        153.73268358332348 Eh            4183.27899 eV
Virial Ratio       :          1.99944799816067

DFT components:
N(Alpha)           :       12.999736493443 electrons
N(Beta)            :       11.000001054917 electrons
N(Total)           :       23.999737548360 electrons
E(XC)              :      -14.740104286426 Eh       

---------------
SCF CONVERGENCE
---------------

  Last Energy change         ...    7.8623e-09  Tolerance :   1.0000e-08
  Last MAX-Density change    ...    4.6120e-04  Tolerance :   1.0000e-07
  Last RMS-Density change    ...    5.6876e-06  Tolerance :   5.0000e-09
  Last DIIS Error            ...    1.8086e-03  Tolerance :   5.0000e-07
  Last Orbital Gradient      ...    1.0262e-05  Tolerance :   1.0000e-05
  Last Orbital Rotation      ...    6.4400e-05  Tolerance :   1.0000e-05


----------------------
UHF SPIN CONTAMINATION
----------------------

Warning: in a DFT calculation there is little theoretical justification to 
         calculate <S**2> as in Hartree-Fock theory. We will do it anyways
         but you should keep in mind that the values have only limited relevance

Expectation value of <S**2>     :     2.005897
Ideal value S*(S+1) for S=1.0   :     2.000000
Deviation                       :     0.005897

----------------
ORBITAL ENERGIES
----------------
                 SPIN UP ORBITALS
  NO   OCC          E(Eh)            E(eV) 
   0   1.0000     -19.466132      -529.7004 
   1   1.0000     -10.422384      -283.6075 
   2   1.0000     -10.362775      -281.9854 
   3   1.0000      -1.290441       -35.1147 
   4   1.0000      -0.863760       -23.5041 
   5   1.0000      -0.777262       -21.1504 
   6   1.0000      -0.685536       -18.6544 
   7   1.0000      -0.648398       -17.6438 
   8   1.0000      -0.570313       -15.5190 
   9   1.0000      -0.505946       -13.7675 
  10   1.0000      -0.497259       -13.5311 
  11   1.0000      -0.472150       -12.8478 
  12   1.0000      -0.152089        -4.1386 
  13   0.0000       0.036961         1.0058 
  14   0.0000       0.061239         1.6664 
  15   0.0000       0.070583         1.9207 
  16   0.0000       0.087321         2.3761 
  17   0.0000       0.109875         2.9899 
  18   0.0000       0.130259         3.5445 
  19   0.0000       0.134084         3.6486 
  20   0.0000       0.143387         3.9018 
  21   0.0000       0.158586         4.3153 
  22   0.0000       0.197100         5.3634 
  23   0.0000       0.201272         5.4769 

                 SPIN DOWN ORBITALS
  NO   OCC          E(Eh)            E(eV) 
   0   1.0000     -19.433293      -528.8068 
   1   1.0000     -10.422612      -283.6137 
   2   1.0000     -10.354061      -281.7483 
   3   1.0000      -1.223684       -33.2981 
   4   1.0000      -0.830001       -22.5855 
   5   1.0000      -0.758623       -20.6432 
   6   1.0000      -0.630505       -17.1569 
   7   1.0000      -0.615901       -16.7595 
   8   1.0000      -0.531914       -14.4741 
   9   1.0000      -0.482734       -13.1359 
  10   1.0000      -0.439684       -11.9644 
  11   0.0000      -0.114929        -3.1274 
  12   0.0000       0.033107         0.9009 
  13   0.0000       0.056993         1.5509 
  14   0.0000       0.063373         1.7245 
  15   0.0000       0.064587         1.7575 
  16   0.0000       0.105980         2.8839 
  17   0.0000       0.111816         3.0427 
  18   0.0000       0.128291         3.4910 
  19   0.0000       0.145779         3.9668 
  20   0.0000       0.150119         4.0849 
  21   0.0000       0.165414         4.5011 
*Only the first 10 virtual orbitals were printed.

                    ********************************
                    * MULLIKEN POPULATION ANALYSIS *
                    ********************************

--------------------------------------------
MULLIKEN ATOMIC CHARGES AND SPIN POPULATIONS
--------------------------------------------
   0 O :   -0.249351    1.245129
   1 C :    0.135371   -0.160742
   2 C :   -0.556602    0.633820
   3 H :    0.169892    0.062156
   4 H :    0.169873    0.062266
   5 H :    0.165440    0.078630
   6 H :    0.165376    0.078742
Sum of atomic charges         :    0.0000000
Sum of atomic spin populations:    2.0000000

-----------------------------------------------------
MULLIKEN REDUCED ORBITAL CHARGES AND SPIN POPULATIONS
-----------------------------------------------------
CHARGE
  0 O s       :     4.060467  s :     4.060467
      pz      :     1.074658  p :     4.145359
      px      :     1.594660
      py      :     1.476041
      dz2     :     0.005622  d :     0.041789
      dxz     :    -0.000584
      dyz     :     0.008899
      dx2y2   :     0.010577
      dxy     :     0.017275
      f0      :     0.000175  f :     0.001735
      f+1     :     0.000078
      f-1     :     0.000274
      f+2     :     0.000087
      f-2     :     0.000175
      f+3     :     0.000446
      f-3     :     0.000501

  1 C s       :     3.222720  s :     3.222720
      pz      :     1.085100  p :     2.553441
      px      :     0.912873
      py      :     0.555468
      dz2     :     0.018325  d :     0.076579
      dxz     :    -0.003171
      dyz     :     0.014236
      dx2y2   :     0.031786
      dxy     :     0.015403
      f0      :     0.001212  f :     0.011889
      f+1     :     0.000854
      f-1     :     0.000832
      f+2     :     0.000962
      f-2     :     0.001217
      f+3     :     0.003443
      f-3     :     0.003368

  2 C s       :     3.523773  s :     3.523773
      pz      :     1.184401  p :     2.948070
      px      :     0.827458
      py      :     0.936211
      dz2     :     0.021469  d :     0.076148
      dxz     :    -0.025501
      dyz     :    -0.000529
      dx2y2   :     0.046060
      dxy     :     0.034649
      f0      :     0.000819  f :     0.008612
      f+1     :     0.000681
      f-1     :     0.000887
      f+2     :     0.000834
      f-2     :     0.000715
      f+3     :     0.002739
      f-3     :     0.001937

  3 H s       :     0.773219  s :     0.773219
      pz      :     0.016539  p :     0.054336
      px      :     0.017351
      py      :     0.020445
      dz2     :     0.000759  d :     0.002553
      dxz     :     0.000621
      dyz     :     0.000515
      dx2y2   :     0.000328
      dxy     :     0.000329

  4 H s       :     0.773209  s :     0.773209
      pz      :     0.016527  p :     0.054363
      px      :     0.017347
      py      :     0.020489
      dz2     :     0.000760  d :     0.002554
      dxz     :     0.000622
      dyz     :     0.000515
      dx2y2   :     0.000328
      dxy     :     0.000329

  5 H s       :     0.717880  s :     0.717880
      pz      :     0.018310  p :     0.114241
      px      :     0.012088
      py      :     0.083843
      dz2     :     0.000682  d :     0.002438
      dxz     :     0.000511
      dyz     :     0.000702
      dx2y2   :     0.000252
      dxy     :     0.000292

  6 H s       :     0.717858  s :     0.717858
      pz      :     0.018290  p :     0.114328
      px      :     0.012095
      py      :     0.083943
      dz2     :     0.000682  d :     0.002439
      dxz     :     0.000511
      dyz     :     0.000702
      dx2y2   :     0.000252
      dxy     :     0.000292


SPIN
  0 O s       :     0.128156  s :     0.128156
      pz      :     0.860608  p :     1.109803
      px      :     0.076545
      py      :     0.172650
      dz2     :     0.001231  d :     0.007319
      dxz     :    -0.000745
      dyz     :    -0.005323
      dx2y2   :     0.005148
      dxy     :     0.007008
      f0      :    -0.000063  f :    -0.000148
      f+1     :    -0.000047
      f-1     :    -0.000104
      f+2     :    -0.000001
      f-2     :     0.000003
      f+3     :     0.000052
      f-3     :     0.000014

  1 C s       :    -0.023532  s :    -0.023532
      pz      :     0.004974  p :    -0.162851
      px      :    -0.009819
      py      :    -0.158005
      dz2     :     0.021878  d :     0.022482
      dxz     :     0.000593
      dyz     :     0.014102
      dx2y2   :     0.000849
      dxy     :    -0.014940
      f0      :     0.000560  f :     0.003160
      f+1     :     0.000011
      f-1     :     0.000003
      f+2     :     0.000601
      f-2     :     0.000535
      f+3     :     0.001521
      f-3     :    -0.000071

  2 C s       :     0.104933  s :     0.104933
      pz      :     0.029315  p :     0.486695
      px      :     0.038941
      py      :     0.418440
      dz2     :     0.011523  d :     0.040499
      dxz     :    -0.003755
      dyz     :    -0.001022
      dx2y2   :     0.023640
      dxy     :     0.010114
      f0      :     0.000145  f :     0.001693
      f+1     :    -0.000089
      f-1     :     0.000538
      f+2     :     0.000230
      f-2     :     0.000267
      f+3     :     0.000580
      f-3     :     0.000023

  3 H s       :     0.045235  s :     0.045235
      pz      :     0.001101  p :     0.016954
      px      :     0.002009
      py      :     0.013844
      dz2     :    -0.000005  d :    -0.000034
      dxz     :     0.000007
      dyz     :    -0.000037
      dx2y2   :     0.000009
      dxy     :    -0.000008

  4 H s       :     0.045307  s :     0.045307
      pz      :     0.001100  p :     0.016993
      px      :     0.002009
      py      :     0.013883
      dz2     :    -0.000005  d :    -0.000034
      dxz     :     0.000007
      dyz     :    -0.000037
      dx2y2   :     0.000009
      dxy     :    -0.000008

  5 H s       :     0.001142  s :     0.001142
      pz      :     0.000880  p :     0.076983
      px      :     0.001191
      py      :     0.074912
      dz2     :     0.000021  d :     0.000505
      dxz     :     0.000005
      dyz     :     0.000364
      dx2y2   :     0.000012
      dxy     :     0.000104

  6 H s       :     0.001171  s :     0.001171
      pz      :     0.000868  p :     0.077067
      px      :     0.001193
      py      :     0.075006
      dz2     :     0.000020  d :     0.000505
      dxz     :     0.000005
      dyz     :     0.000364
      dx2y2   :     0.000012
      dxy     :     0.000104



                     *******************************
                     * LOEWDIN POPULATION ANALYSIS *
                     *******************************

-------------------------------------------
LOEWDIN ATOMIC CHARGES AND SPIN POPULATIONS
-------------------------------------------
   0 O :    0.120230    1.101944
   1 C :   -0.053714    0.133461
   2 C :    0.003168    0.442256
   3 H :    0.025751    0.046638
   4 H :    0.025766    0.046676
   5 H :   -0.060612    0.114528
   6 H :   -0.060589    0.114497

----------------------------------------------------
LOEWDIN REDUCED ORBITAL CHARGES AND SPIN POPULATIONS
----------------------------------------------------
CHARGE
  0 O s       :     3.439437  s :     3.439437
      pz      :     0.998365  p :     4.016540
      px      :     1.489290
      py      :     1.528885
      dz2     :     0.036461  d :     0.417397
      dxz     :     0.048094
      dyz     :     0.081021
      dx2y2   :     0.113215
      dxy     :     0.138607
      f0      :     0.000644  f :     0.006395
      f+1     :     0.000251
      f-1     :     0.001002
      f+2     :     0.000215
      f-2     :     0.000830
      f+3     :     0.001188
      f-3     :     0.002265

  1 C s       :     2.646319  s :     2.646319
      pz      :     0.907575  p :     2.562446
      px      :     0.931602
      py      :     0.723270
      dz2     :     0.097348  d :     0.754752
      dxz     :     0.206663
      dyz     :     0.062430
      dx2y2   :     0.209015
      dxy     :     0.179296
      f0      :     0.007931  f :     0.090197
      f+1     :     0.007866
      f-1     :     0.009418
      f+2     :     0.007457
      f-2     :     0.006536
      f+3     :     0.024747
      f-3     :     0.026243

  2 C s       :     2.672966  s :     2.672966
      pz      :     0.927250  p :     2.592798
      px      :     0.882257
      py      :     0.783291
      dz2     :     0.104238  d :     0.666131
      dxz     :     0.186147
      dyz     :     0.033364
      dx2y2   :     0.190785
      dxy     :     0.151597
      f0      :     0.005610  f :     0.064937
      f+1     :     0.007262
      f-1     :     0.007887
      f+2     :     0.005489
      f-2     :     0.002683
      f+3     :     0.021099
      f-3     :     0.014906

  3 H s       :     0.681780  s :     0.681780
      pz      :     0.113747  p :     0.262590
      px      :     0.081703
      py      :     0.067139
      dz2     :     0.009248  d :     0.029880
      dxz     :     0.008572
      dyz     :     0.005890
      dx2y2   :     0.003430
      dxy     :     0.002740

  4 H s       :     0.681747  s :     0.681747
      pz      :     0.113748  p :     0.262607
      px      :     0.081707
      py      :     0.067152
      dz2     :     0.009247  d :     0.029880
      dxz     :     0.008572
      dyz     :     0.005892
      dx2y2   :     0.003430
      dxy     :     0.002739

  5 H s       :     0.694809  s :     0.694809
      pz      :     0.115856  p :     0.334681
      px      :     0.076720
      py      :     0.142105
      dz2     :     0.009144  d :     0.031122
      dxz     :     0.008628
      dyz     :     0.007887
      dx2y2   :     0.002796
      dxy     :     0.002667

  6 H s       :     0.694795  s :     0.694795
      pz      :     0.115876  p :     0.334672
      px      :     0.076722
      py      :     0.142074
      dz2     :     0.009148  d :     0.031122
      dxz     :     0.008628
      dyz     :     0.007889
      dx2y2   :     0.002793
      dxy     :     0.002663


SPIN
  0 O s       :     0.083575  s :     0.083575
      pz      :     0.762491  p :     0.979267
      px      :     0.080067
      py      :     0.136709
      dz2     :     0.006595  d :     0.038393
      dxz     :    -0.001215
      dyz     :     0.012970
      dx2y2   :     0.001121
      dxy     :     0.018923
      f0      :     0.000144  f :     0.000709
      f+1     :     0.000080
      f-1     :     0.000222
      f+2     :     0.000025
      f-2     :     0.000007
      f+3     :     0.000224
      f-3     :     0.000007

  1 C s       :    -0.000007  s :    -0.000007
      pz      :     0.011012  p :     0.014807
      px      :     0.005898
      py      :    -0.002103
      dz2     :     0.006021  d :     0.096712
      dxz     :     0.017050
      dyz     :     0.060384
      dx2y2   :     0.004483
      dxy     :     0.008775
      f0      :     0.003558  f :     0.021949
      f+1     :     0.000379
      f-1     :     0.000555
      f+2     :     0.004720
      f-2     :     0.003002
      f+3     :     0.009835
      f-3     :    -0.000100

  2 C s       :     0.020992  s :     0.020992
      pz      :     0.018455  p :     0.305021
      px      :     0.012122
      py      :     0.274444
      dz2     :     0.010454  d :     0.103166
      dxz     :     0.001548
      dyz     :     0.027211
      dx2y2   :     0.034248
      dxy     :     0.029705
      f0      :     0.000945  f :     0.013078
      f+1     :     0.000223
      f-1     :     0.001608
      f+2     :     0.001878
      f-2     :     0.001180
      f+3     :     0.007430
      f-3     :    -0.000187

  3 H s       :     0.027739  s :     0.027739
      pz      :     0.001026  p :     0.019260
      px      :    -0.000357
      py      :     0.018591
      dz2     :    -0.000055  d :    -0.000361
      dxz     :     0.000027
      dyz     :    -0.000278
      dx2y2   :     0.000087
      dxy     :    -0.000142

  4 H s       :     0.027771  s :     0.027771
      pz      :     0.001025  p :     0.019266
      px      :    -0.000355
      py      :     0.018596
      dz2     :    -0.000055  d :    -0.000361
      dxz     :     0.000027
      dyz     :    -0.000279
      dx2y2   :     0.000087
      dxy     :    -0.000142

  5 H s       :     0.005801  s :     0.005801
      pz      :     0.002323  p :     0.103427
      px      :     0.000727
      py      :     0.100377
      dz2     :     0.000271  d :     0.005300
      dxz     :     0.000296
      dyz     :     0.003804
      dx2y2   :     0.000052
      dxy     :     0.000877

  6 H s       :     0.005807  s :     0.005807
      pz      :     0.002321  p :     0.103392
      px      :     0.000725
      py      :     0.100346
      dz2     :     0.000270  d :     0.005298
      dxz     :     0.000296
      dyz     :     0.003805
      dx2y2   :     0.000052
      dxy     :     0.000875



                      *****************************
                      * MAYER POPULATION ANALYSIS *
                      *****************************

  NA   - Mulliken gross atomic population
  ZA   - Total nuclear charge
  QA   - Mulliken gross atomic charge
  VA   - Mayer's total valence
  BVA  - Mayer's bonded valence
  FA   - Mayer's free valence

  ATOM       NA         ZA         QA         VA         BVA        FA
  0 O      8.2494     8.0000    -0.2494     2.4049     1.5117     0.8932
  1 C      5.8646     6.0000     0.1354     3.1173     3.1026     0.0147
  2 C      6.5566     6.0000    -0.5566     3.5341     3.2863     0.2479
  3 H      0.8301     1.0000     0.1699     1.0643     1.0625     0.0018
  4 H      0.8301     1.0000     0.1699     1.0643     1.0625     0.0018
  5 H      0.8346     1.0000     0.1654     1.1378     1.1300     0.0078
  6 H      0.8346     1.0000     0.1654     1.1379     1.1301     0.0078

  Mayer bond orders larger than 0.100000
B(  0-O ,  1-C ) :   0.7167 B(  0-O ,  2-C ) :   0.5797 B(  1-C ,  2-C ) :   0.5647 
B(  1-C ,  3-H ) :   0.9915 B(  1-C ,  4-H ) :   0.9914 B(  2-C ,  5-H ) :   1.0848 
B(  2-C ,  6-H ) :   1.0849 

-------
TIMINGS
-------

Total SCF time: 0 days 0 hours 0 min 6 sec 

Total time                  ....       6.822 sec
Sum of individual times     ....       6.795 sec  ( 99.6%)

SCF preparation             ....       0.426 sec  (  6.2%)
Fock matrix formation       ....       5.711 sec  ( 83.7%)
  Startup                   ....       0.038 sec  (  0.7% of F)
  Split-RI-J                ....       0.243 sec  (  4.3% of F)
  Chain of spheres X        ....       3.604 sec  ( 63.1% of F)
  XC integration            ....       1.692 sec  ( 29.6% of F)
    XC Preparation          ....       0.000 sec  (  0.0% of XC)
    Basis function eval.    ....       0.114 sec  (  6.7% of XC)
    Density eval.           ....       0.487 sec  ( 28.8% of XC)
    XC-Functional eval.     ....       0.046 sec  (  2.7% of XC)
    XC-Potential eval.      ....       0.820 sec  ( 48.4% of XC)
Diagonalization             ....       0.000 sec  (  0.0%)
Density matrix formation    ....       0.087 sec  (  1.3%)
Total Energy calculation    ....       0.060 sec  (  0.9%)
Population analysis         ....       0.020 sec  (  0.3%)
Orbital Transformation      ....       0.042 sec  (  0.6%)
Orbital Orthonormalization  ....       0.000 sec  (  0.0%)
DIIS solution               ....       0.281 sec  (  4.1%)
SOSCF solution              ....       0.166 sec  (  2.4%)
Finished LeanSCF after   6.8 sec

Maximum memory used throughout the entire LEANSCF-calculation: 14.8 MB
[1740999258.223021] [ohm:3199648:0]        ib_iface.c:1059 UCX  ERROR ibv_create_cq(cqe=256) failed: Connection timed out
[1740999258.223023] [ohm:3199644:0]        ib_iface.c:1059 UCX  ERROR ibv_create_cq(cqe=256) failed: Connection timed out
[1740999258.224347] [ohm:3199646:0]        ib_iface.c:1059 UCX  ERROR ibv_create_cq(cqe=256) failed: Connection timed out
[1740999258.233093] [ohm:3199647:0]        ib_iface.c:1059 UCX  ERROR ibv_create_cq(cqe=256) failed: Connection timed out
[1740999258.234032] [ohm:3199645:0]        ib_iface.c:1059 UCX  ERROR ibv_create_cq(cqe=256) failed: Connection timed out
[1740999258.235755] [ohm:3199649:0]        ib_iface.c:1059 UCX  ERROR ibv_create_cq(cqe=256) failed: Connection timed out
[1740999258.235947] [ohm:3199643:0]        ib_iface.c:1059 UCX  ERROR ibv_create_cq(cqe=256) failed: Connection timed out
[1740999258.236981] [ohm:3199653:0]        ib_iface.c:1059 UCX  ERROR ibv_create_cq(cqe=256) failed: Connection timed out
[1740999258.237076] [ohm:3199650:0]        ib_iface.c:1059 UCX  ERROR ibv_create_cq(cqe=256) failed: Connection timed out
[1740999258.238589] [ohm:3199651:0]        ib_iface.c:1059 UCX  ERROR ibv_create_cq(cqe=256) failed: Connection timed out
[1740999258.271134] [ohm:3199661:0]        ib_iface.c:1059 UCX  ERROR ibv_create_cq(cqe=256) failed: Connection timed out
[1740999258.275278] [ohm:3199657:0]        ib_iface.c:1059 UCX  ERROR ibv_create_cq(cqe=256) failed: Connection timed out
[1740999258.275279] [ohm:3199665:0]        ib_iface.c:1059 UCX  ERROR ibv_create_cq(cqe=256) failed: Connection timed out
[1740999258.275689] [ohm:3199668:0]        ib_iface.c:1059 UCX  ERROR ibv_create_cq(cqe=256) failed: Connection timed out
[1740999258.275765] [ohm:3199655:0]        ib_iface.c:1059 UCX  ERROR ibv_create_cq(cqe=256) failed: Connection timed out
[1740999258.275920] [ohm:3199671:0]        ib_iface.c:1059 UCX  ERROR ibv_create_cq(cqe=256) failed: Connection timed out


           ************************************************************
           *        Program running with 16 parallel MPI-processes    *
           *              working on a common directory               *
           ************************************************************

------------------------------------------------------------------------------
                         ORCA PROPERTY INTEGRAL CALCULATIONS
------------------------------------------------------------------------------

GBWName                                   ... orca.gbw
Number of atoms                           ...      7
Number of basis functions                 ...    182
Max core memory                           ...   1024 MB

Dipole integrals                          ... YES
Quadrupole integrals                      ...  NO
Linear momentum integrals                 ... YES
Angular momentum integrals                ... YES
Higher moments length integrals           ...  NO
Higher moments velocity integrals         ...  NO
Kinetic energy integrals                  ...  NO
GIAO right hand sides                     ...  NO
GIAO dipole derivative integrals          ...  NO
SOC integrals                             ...  NO
EPR diamagnetic integrals (GIAO)          ...  NO
EPR gauge integrals                       ...  NO
Field gradient integrals                  ...  NO (   0 nuclei)
Spin-dipole/Fermi contact integrals       ...  NO (   0 nuclei)
Contact density integrals                 ...  NO (   0 nuclei)
Nucleus-orbit integrals                   ...  NO (   0 nuclei)
Geometric perturbations                   ...  NO (   7 nuclei)

Choice of electric origin   ... Center of mass
Position of electric origin ... (  0.0303, -0.0138, -0.0001) 
Choice of magnetic origin   ... GIAO
Position of magnetic origin ... (  0.0000,  0.0000,  0.0000) 

Calculating integrals                     ... Electric Dipole (Length)     done (  0.0 sec)
Calculating integrals                     ... Linear Momentum              done (  0.0 sec)
Calculating integrals                     ... Angular Momentum  (ElOri)    done (  0.0 sec)

Property integrals calculated in   0.0 sec

Maximum memory used throughout the entire PROPINT-calculation: 10.4 MB
[1740999258.904587] [ohm:3199730:0]        ib_iface.c:1059 UCX  ERROR ibv_create_cq(cqe=256) failed: Connection timed out
[1740999258.904445] [ohm:3199738:0]        ib_iface.c:1059 UCX  ERROR ibv_create_cq(cqe=256) failed: Connection timed out
[1740999258.920171] [ohm:3199733:0]        ib_iface.c:1059 UCX  ERROR ibv_create_cq(cqe=256) failed: Connection timed out
[1740999258.920293] [ohm:3199737:0]        ib_iface.c:1059 UCX  ERROR ibv_create_cq(cqe=256) failed: Connection timed out
[1740999258.920419] [ohm:3199736:0]        ib_iface.c:1059 UCX  ERROR ibv_create_cq(cqe=256) failed: Connection timed out
[1740999258.920915] [ohm:3199729:0]        ib_iface.c:1059 UCX  ERROR ibv_create_cq(cqe=256) failed: Connection timed out
[1740999258.938917] [ohm:3199741:0]        ib_iface.c:1059 UCX  ERROR ibv_create_cq(cqe=256) failed: Connection timed out
[1740999258.944238] [ohm:3199743:0]        ib_iface.c:1059 UCX  ERROR ibv_create_cq(cqe=256) failed: Connection timed out
[1740999258.944994] [ohm:3199740:0]        ib_iface.c:1059 UCX  ERROR ibv_create_cq(cqe=256) failed: Connection timed out
[1740999258.947217] [ohm:3199746:0]        ib_iface.c:1059 UCX  ERROR ibv_create_cq(cqe=256) failed: Connection timed out
[1740999258.947266] [ohm:3199739:0]        ib_iface.c:1059 UCX  ERROR ibv_create_cq(cqe=256) failed: Connection timed out
[1740999258.951709] [ohm:3199758:0]        ib_iface.c:1059 UCX  ERROR ibv_create_cq(cqe=256) failed: Connection timed out
[1740999258.952952] [ohm:3199745:0]        ib_iface.c:1059 UCX  ERROR ibv_create_cq(cqe=256) failed: Connection timed out
[1740999258.952955] [ohm:3199748:0]        ib_iface.c:1059 UCX  ERROR ibv_create_cq(cqe=256) failed: Connection timed out
[1740999258.969712] [ohm:3199764:0]        ib_iface.c:1059 UCX  ERROR ibv_create_cq(cqe=256) failed: Connection timed out
[1740999258.970608] [ohm:3199766:0]        ib_iface.c:1059 UCX  ERROR ibv_create_cq(cqe=256) failed: Connection timed out


           ************************************************************
           *        Program running with 16 parallel MPI-processes    *
           *              working on a common directory               *
           ************************************************************
------------------------------------------------------------------------------
                        ORCA TD-DFT/TDA CALCULATION
------------------------------------------------------------------------------

Input orbitals are from        ... orca.gbw
CI-vector output               ... orca.cis
Solver                         ... FN-2001
Tamm-Dancoff approximation     ... operative
CIS-Integral strategy          ... AO-integrals
Integral handling              ... AO integral Direct
Max. core memory used          ... 512 MB
Reference state                ... UHF
Follow IRoot                   ... off
Number of operators            ... 2
Orbital ranges used for CIS calculation:
 Operator 0:  Orbitals   3... 12  to  11...181

-------------------
XC-INTEGRATION GRID
-------------------

General Integration Accuracy     IntAcc      ... 3.467
Radial Grid Type                 RadialGrid  ... OptM3 with GC (2021)
Angular Grid (max. ang.)         AngularGrid ... 1 (Lebedev-50)
Angular grid pruning method      GridPruning ... 4 (adaptive)
Weight generation scheme         WeightScheme... mBecke (2022)
Basis function cutoff            BFCut       ... 1.0000e-11
Integration weight cutoff        WCut        ... 1.0000e-14
Partially contracted basis set               ... off
Rotationally invariant grid construction     ... off
Angular grids for H and He will be reduced by one unit
Diffuse basis detected: some atoms will have their outermost
                        angular grid increased by 1.

Total number of grid points                  ...     4738
Total number of batches                      ...       76
Average number of points per batch           ...       62
Average number of grid points per atom       ...      677

---------------------
COSX-INTEGRATION GRID
---------------------

General Integration Accuracy     IntAcc      ... 3.067
Radial Grid Type                 RadialGrid  ... OptM3 with GC (2021)
Angular Grid (max. ang.)         AngularGrid ... 1 (Lebedev-50)
Angular grid pruning method      GridPruning ... 4 (adaptive)
Weight generation scheme         WeightScheme... mBecke (2022)
Basis function cutoff            BFCut       ... 1.0000e-11
Integration weight cutoff        WCut        ... 1.0000e-14
Partially contracted basis set               ... on
Rotationally invariant grid construction     ... off
Angular grids for H and He will be reduced by one unit
Diffuse basis detected: some atoms will have their outermost
                        angular grid increased by 1.

Total number of grid points                  ...     2155
Total number of batches                      ...       22
Average number of points per batch           ...       97
Average number of grid points per atom       ...      308

---------------
TD-DFT XC SETUP
---------------

DFT calculation                         ... on
Name of the grid file                   ... orca.grid_cis.tmp
RI-approximation                        ... on
Aux-basis dimension                     ... 0
Functional (TD-DFT)
  Functional kind                       .... Exchange-Correlation
  Functional name                       .... wB97M-V exchange-correlation functional
  Functional family                     .... Hybrid MGGA
  Functional refs                              
    [ 0] N. Mardirossian and M. Head-Gordon.,  J. Chem. Phys. 144, 214110 (2016), doi: 10.1063/1.4952647
  Fraction of HF Exchange (short range) .... 0.1500
  Fraction of HF Exchange (long range)  .... 1.0000
  Range separation parameter mu         .... 0.3000
  Functional external parameters        .... 17
    Parameter  0 _cx00      =  8.500000e-01 : u^00 coefficient for exchange
    Parameter  1 _cx01      =  1.007000e+00 : u^01 coefficient for exchange
    Parameter  2 _cx10      =  2.590000e-01 : u^10 coefficient for exchange
    Parameter  3 _css00     =  4.430000e-01 : u^00 coefficient for same-spin correlation
    Parameter  4 _css04     = -1.437000e+00 : u^04 coefficient for same-spin correlation
    Parameter  5 _css10     = -4.535000e+00 : u^10 coefficient for same-spin correlation
    Parameter  6 _css20     = -3.390000e+00 : u^20 coefficient for same-spin correlation
    Parameter  7 _css43     =  4.278000e+00 : u^43 coefficient for same-spin correlation
    Parameter  8 _cos00     =  1.000000e+00 : u^00 coefficient for opposite-spin correlation
    Parameter  9 _cos10     =  1.358000e+00 : u^10 coefficient for opposite-spin correlation
    Parameter 10 _cos20     =  2.924000e+00 : u^20 coefficient for opposite-spin correlation
    Parameter 11 _cos21     = -8.812000e+00 : u^21 coefficient for opposite-spin correlation
    Parameter 12 _cos60     = -1.390000e+00 : u^60 coefficient for opposite-spin correlation
    Parameter 13 _cos61     =  9.142000e+00 : u^61 coefficient for opposite-spin correlation
    Parameter 14 _alpha     =  1.000000e+00 : fraction of HF exchange
    Parameter 15 _beta      = -8.500000e-01 : fraction of short-range exchange
    Parameter 16 _omega     =  3.000000e-01 : range-separation constant
Hybrid DFT                              ... on
   Exchange mixing (TD-DFT)             ...  0.150
   GGA exch. scaling (TD-DFT)           ...  0.000
   GGA corr. scaling (TD-DFT)           ...  1.000
Range-Separated Exchange                ... on
   Range Range separation parameter mu  .... 0.300
   Max. amount of RS exchange (TD-DFT)  ...  0.850

Building densities             ... done
Calculating rho(r) on the grid ... done
Building xc-kernel on the grid ... done
                    *** TD-DFT CALCULATION INITIALIZED ***

------------------------
DAVIDSON-DIAGONALIZATION
------------------------

Dimension of the eigenvalue problem            ...   1710
Number of roots to be determined               ...      2
Maximum size of the expansion space            ...     20
Maximum number of iterations                   ...    100
Convergence tolerance for the residual         ...    2.500e-07
Convergence tolerance for the energies         ...    2.500e-07
Orthogonality tolerance                        ...    1.000e-14
Level Shift                                    ...    0.000e+00
Constructing the preconditioner                ... o.k.
Building the initial guess                     ... o.k.
Number of trial vectors determined             ...     20


                       ****Iteration    0****
   Time for iteration     :  TOTAL=0.2 TRAFO=0.0 RIJ=0.0 COSX=0.2
   Size of expansion space: 6
   Lowest Energy          :    -0.209798808268
   Maximum Energy change  :     0.209798808268 (vector 0)
   Maximum residual norm  :     0.002118308498

                       ****Iteration    1****
   Time for iteration     :  TOTAL=0.1 TRAFO=0.0 COSX=0.1
   Size of expansion space: 8
   Lowest Energy          :    -0.213170789684
   Maximum Energy change  :     0.009302322505 (vector 1)
   Maximum residual norm  :     0.000361646457

                       ****Iteration    2****
   Time for iteration     :  TOTAL=0.1 TRAFO=0.0 COSX=0.1
   Size of expansion space: 10
   Lowest Energy          :    -0.213206520341
   Maximum Energy change  :     0.003131993757 (vector 1)
   Maximum residual norm  :     0.000244903295

                       ****Iteration    3****
   Time for iteration     :  TOTAL=0.1 TRAFO=0.0 COSX=0.1
   Size of expansion space: 12
   Lowest Energy          :    -0.213207177117
   Maximum Energy change  :     0.001048677390 (vector 1)
   Maximum residual norm  :     0.000097606000

                       ****Iteration    4****
   Time for iteration     :  TOTAL=0.1 TRAFO=0.0 COSX=0.1
   Size of expansion space: 14
   Lowest Energy          :    -0.213207187164
   Maximum Energy change  :     0.000624059579 (vector 1)
   Maximum residual norm  :     0.000100929084

                       ****Iteration    5****
   Time for iteration     :  TOTAL=0.1 TRAFO=0.0 COSX=0.1
   Size of expansion space: 16
   Lowest Energy          :    -0.213207187284
   Maximum Energy change  :     0.000548677580 (vector 1)
   Maximum residual norm  :     0.000285962104

                       ****Iteration    6****
   Time for iteration     :  TOTAL=0.1 TRAFO=0.0 COSX=0.1
   Size of expansion space: 18
   Lowest Energy          :    -0.213207187286
   Maximum Energy change  :     0.004701642058 (vector 1)
   Maximum residual norm  :     0.002209245600

                       ****Iteration    7****
   Time for iteration     :  TOTAL=0.1 TRAFO=0.0 RIJ=0.0 COSX=0.1
   Size of expansion space: 20
   Lowest Energy          :    -0.213207187286
   Maximum Energy change  :     0.003098242076 (vector 1)
   Maximum residual norm  :     0.000276846010
   Rebuilding the expansion space

                       ****Iteration    8****
   Time for iteration     :  TOTAL=0.2 TRAFO=0.0 COSX=0.1
   Size of expansion space: 4
   Lowest Energy          :    -0.213211086098
   Maximum Energy change  :     0.000253322185 (vector 1)
   Maximum residual norm  :     0.000053569521

                       ****Iteration    9****
   Time for iteration     :  TOTAL=0.1 TRAFO=0.0 COSX=0.1
   Size of expansion space: 6
   Lowest Energy          :    -0.213211086099
   Maximum Energy change  :     0.000047574244 (vector 1)
   Maximum residual norm  :     0.000008049289

                       ****Iteration   10****
   Time for iteration     :  TOTAL=0.1 TRAFO=0.0 COSX=0.1
   Size of expansion space: 7
   Lowest Energy          :    -0.213211086099
   Maximum Energy change  :     0.000010488218 (vector 1)
   Maximum residual norm  :     0.000002177678

                       ****Iteration   11****
   Time for iteration     :  TOTAL=0.1 TRAFO=0.0 COSX=0.1
   Size of expansion space: 8
   Lowest Energy          :    -0.213211086099
   Maximum Energy change  :     0.000002288768 (vector 1)
   Maximum residual norm  :     0.000000368309

                       ****Iteration   12****
   Time for iteration     :  TOTAL=0.1 TRAFO=0.0 RIJ=0.0 COSX=0.1
   Size of expansion space: 9
   Lowest Energy          :    -0.213211086099
   Maximum Energy change  :     0.000000397997 (vector 1)
   Maximum residual norm  :     0.000000245549

      *** CONVERGENCE OF RESIDUAL NORM REACHED ***

Storing the converged CI vectors               ... orca.cis3

                 *** DAVIDSON DONE ***

Total time for solving the CIS problem:     1.890sec

---------------------
SF-TDA EXCITED STATES
---------------------

the weight of the individual excitations are printed if larger than 1.0e-02

UHF/UKS reference: multiplicity estimated based on rounded <S**2> value, RELEVANCE IS LIMITED!

(SPIN-FLIP GROUND STATE)
STATE  1:  E=  -0.213211 au     -5.802 eV   -46794.4 cm**-1 <S**2> =   0.028974 Mult 1
    12a ->  11b  :     0.985157 (c=  0.99255081)

STATE  2:  E=   0.016409 au      0.447 eV     3601.3 cm**-1 <S**2> =   1.060444 Mult 3
    12a ->  12b  :     0.036572 (c=  0.19123698)
[...]
      f-2     :     0.002897
      f+3     :    -0.006410
      f-3     :     0.000317
  2 C s       :    -0.025875  s :    -0.025875
      pz      :     0.008675  p :    -0.189122
      px      :    -0.007907
      py      :    -0.189890
      dz2     :    -0.012770  d :    -0.050580
      dxz     :    -0.001339
      dyz     :     0.025880
      dx2y2   :    -0.034550
      dxy     :    -0.027802
      f0      :     0.000910  f :    -0.001924
      f+1     :    -0.000158
      f-1     :    -0.001124
      f+2     :     0.002082
      f-2     :     0.001253
      f+3     :    -0.004664
      f-3     :    -0.000222
  3 H s       :     0.030748  s :     0.030748
      pz      :    -0.000231  p :    -0.037431
      px      :    -0.000870
      py      :    -0.036331
      dz2     :    -0.000167  d :    -0.000265
      dxz     :     0.000073
      dyz     :    -0.000075
      dx2y2   :    -0.000001
      dxy     :    -0.000095
  4 H s       :     0.030774  s :     0.030774
      pz      :    -0.000231  p :    -0.037443
      px      :    -0.000871
      py      :    -0.036342
      dz2     :    -0.000167  d :    -0.000265
      dxz     :     0.000073
      dyz     :    -0.000075
      dx2y2   :    -0.000001
      dxy     :    -0.000095
  5 H s       :     0.014615  s :     0.014615
      pz      :    -0.001443  p :    -0.116872
      px      :    -0.001265
      py      :    -0.114164
      dz2     :    -0.000175  d :    -0.002902
      dxz     :    -0.000068
      dyz     :    -0.002219
      dx2y2   :     0.000075
      dxy     :    -0.000515
  6 H s       :     0.014619  s :     0.014619
      pz      :    -0.001441  p :    -0.116837
      px      :    -0.001264
      py      :    -0.114133
      dz2     :    -0.000174  d :    -0.002900
      dxz     :    -0.000067
      dyz     :    -0.002219
      dx2y2   :     0.000075
      dxy     :    -0.000514


                      *****************************
                      * MAYER POPULATION ANALYSIS *
                      *****************************

  NA   - Mulliken gross atomic population
  ZA   - Total nuclear charge
  QA   - Mulliken gross atomic charge
  VA   - Mayer's total valence
  BVA  - Mayer's bonded valence
  FA   - Mayer's free valence

  ATOM       NA         ZA         QA         VA         BVA        FA
  0 O      8.3266     8.0000    -0.3266     2.7939     1.8497     0.9442
  1 C      6.0516     6.0000    -0.0516     3.4868     3.3330     0.1538
  2 C      5.4287     6.0000     0.5713     3.5623     2.8466     0.7157
  3 H      0.8195     1.0000     0.1805     1.0688     1.0694    -0.0006
  4 H      0.8197     1.0000     0.1803     1.0693     1.0699    -0.0007
  5 H      1.2769     1.0000    -0.2769     1.5477     1.5589    -0.0112
  6 H      1.2770     1.0000    -0.2770     1.5481     1.5595    -0.0114

  Mayer bond orders larger than 0.100000
B(  0-O ,  1-C ) :   0.7654 B(  0-O ,  2-C ) :   0.6999 B(  0-O ,  5-H ) :   0.1327 
B(  0-O ,  6-H ) :   0.1329 B(  1-C ,  2-C ) :   0.7049 B(  1-C ,  3-H ) :   0.9883 
B(  1-C ,  4-H ) :   0.9883 B(  2-C ,  5-H ) :   0.7328 B(  2-C ,  6-H ) :   0.7332 
B(  5-H ,  6-H ) :   0.7601 


-------
TIMINGS
-------

Total TD-DFT gradient time  ....        5.815 sec

Fock matrix formation       ....       1.208 sec  ( 20.8%)
  Coulomb formation         ....       0.929 sec  ( 76.9% of F)
  XC integration            ....       0.279 sec  ( 23.1% of F)
Z-vector equation           ....       1.815 sec  ( 31.2%)
Densities                   ....       0.000 sec  (  0.0%)
One electron gradient       ....       0.009 sec  (  0.2%)
RI-J Coulomb gradient       ....       0.093 sec  (  1.6%)
COSX gradient               ....       0.477 sec  (  8.2%)
XC gradient                 ....       2.002 sec  ( 34.4%)

Maximum memory used throughout the entire CIS-calculation: 35.8 MB
=> NOW LEAVING ORCA_CIS


-------------------------------------------------------------------------------
                          DFT DISPERSION CORRECTION                            
                                                                               
                              DFTD3 V3.1  Rev 1                                
                          USING Becke-Johnson damping                          
-------------------------------------------------------------------------------
The WB97M functional is recognized
Active option DFTDOPT                   ...         4   

molecular C6(AA) [au] = 351.027841 


            DFT-D V3
 parameters
 s6 scaling factor         :     1.0000 
 a1 scaling factor         :     0.5660 
 s8 scaling factor         :     0.3908 
 a2 scaling factor         :     3.1280 
 ad hoc parameters k1-k3   :    16.0000     1.3333    -4.0000 

 Edisp/kcal,au: -3.286331047495  -0.005237101323 
 E6   /kcal   :  -2.650531730 
 E8   /kcal   :  -0.635799318 
 % E8         :  19.346782436 

-------------------------   ----------------
Dispersion correction           -0.005237101
-------------------------   ----------------


-------------------------   --------------------
FINAL SINGLE POINT ENERGY      -153.636651072256
-------------------------   --------------------

[1740999267.433643] [ohm:3199839:0]        ib_iface.c:1059 UCX  ERROR ibv_create_cq(cqe=256) failed: Connection timed out
[1740999267.433654] [ohm:3199843:0]        ib_iface.c:1059 UCX  ERROR ibv_create_cq(cqe=256) failed: Connection timed out
[1740999267.455252] [ohm:3199840:0]        ib_iface.c:1059 UCX  ERROR ibv_create_cq(cqe=256) failed: Connection timed out
[1740999267.455537] [ohm:3199838:0]        ib_iface.c:1059 UCX  ERROR ibv_create_cq(cqe=256) failed: Connection timed out
[1740999267.455712] [ohm:3199844:0]        ib_iface.c:1059 UCX  ERROR ibv_create_cq(cqe=256) failed: Connection timed out
[1740999267.457491] [ohm:3199841:0]        ib_iface.c:1059 UCX  ERROR ibv_create_cq(cqe=256) failed: Connection timed out
[1740999267.458298] [ohm:3199857:0]        ib_iface.c:1059 UCX  ERROR ibv_create_cq(cqe=256) failed: Connection timed out
[1740999267.458375] [ohm:3199851:0]        ib_iface.c:1059 UCX  ERROR ibv_create_cq(cqe=256) failed: Connection timed out
[1740999267.458905] [ohm:3199845:0]        ib_iface.c:1059 UCX  ERROR ibv_create_cq(cqe=256) failed: Connection timed out
[1740999267.458917] [ohm:3199848:0]        ib_iface.c:1059 UCX  ERROR ibv_create_cq(cqe=256) failed: Connection timed out
[1740999267.459711] [ohm:3199842:0]        ib_iface.c:1059 UCX  ERROR ibv_create_cq(cqe=256) failed: Connection timed out
[1740999267.461099] [ohm:3199850:0]        ib_iface.c:1059 UCX  ERROR ibv_create_cq(cqe=256) failed: Connection timed out
[1740999267.461352] [ohm:3199846:0]        ib_iface.c:1059 UCX  ERROR ibv_create_cq(cqe=256) failed: Connection timed out
[1740999267.478028] [ohm:3199862:0]        ib_iface.c:1059 UCX  ERROR ibv_create_cq(cqe=256) failed: Connection timed out
[1740999267.478990] [ohm:3199866:0]        ib_iface.c:1059 UCX  ERROR ibv_create_cq(cqe=256) failed: Connection timed out
[1740999267.479316] [ohm:3199853:0]        ib_iface.c:1059 UCX  ERROR ibv_create_cq(cqe=256) failed: Connection timed out


           ************************************************************
           *        Program running with 16 parallel MPI-processes    *
           *              working on a common directory               *
           ************************************************************

------------------------------------------------------------------------------
                              ORCA PROPERTY CALCULATIONS
------------------------------------------------------------------------------

GBWName                                 ... orca.gbw
Number of atoms                         ...      7
Number of basis functions               ...    182
Max core memory                         ...   1024 MB

Electric properties:
Dipole moment                           ... YES
Quadrupole moment                       ...  NO
Static polarizability (Dipole/Dipole)   ...  NO
Static polarizability (Dipole/Quad.)    ...  NO
Static polarizability (Quad./Quad.)     ...  NO
Static polarizability (Velocity)        ...  NO

Atomic electric properties:
Dipole moment                           ...  NO
Quadrupole moment                       ...  NO
Static polarizability                   ...  NO

Choice of electric origin               ... Center of mass
Position of electric origin             ...     0.030274    -0.013754    -0.000067

General magnetic properties:
Magnetizability                         ...  NO

EPR properties:
g-Tensor (aka g-matrix)                 ...  NO
Zero-Field splitting spin-orbit         ...  NO
Zero-field splitting spin-spin          ...  NO
Hyperfine couplings                     ...  NO (   0 nuclei)
Quadrupole couplings                    ...  NO (   0 nuclei)
Contact density                         ...  NO (   0 nuclei)

NMR properties:
Chemical shifts                         ...  NO (   0 nuclei)
Spin-rotation constants                 ...  NO (   0 nuclei)
Spin-spin couplings                     ...  NO (   0 nuclei,    0 pairs)

Choice of magnetic origin               ... GIAO
Position of magnetic origin             ...     0.000000     0.000000     0.000000

Properties with geometric perturbations:
SCF Hessian                             ...  NO
IR spectrum                             ...  NO
VCD spectrum                            ...  NO
X-ray spectroscopy properties:
SCF XES/XAS/RIXS spectra                ...  NO


-------------
DIPOLE MOMENT
-------------

Method             : SCF
Type of density    : Electron Density
Multiplicity       :   3
Irrep              :   0
Energy             :  -153.6478228592198150 Eh
Relativity type    : 
Basis              : AO
                                X                 Y                 Z
Electronic contribution:      0.783724759       2.416449492      -0.000203025
Nuclear contribution   :     -0.093483864      -2.435516140       0.000238033
                        -----------------------------------------
Total Dipole Moment    :      0.690240895      -0.019066648       0.000035008
                        -----------------------------------------
Magnitude (a.u.)       :      0.690504186
Magnitude (Debye)      :      1.755122160



--------------------
Rotational spectrum 
--------------------
 
Rotational constants in cm-1:             0.868302             0.713014             0.464323 
Rotational constants in MHz :         26031.037987         21375.623486         13920.061861 

Dipole components along the rotational axes: 
x,y,z [a.u.] :     0.522346    -0.451609    -0.000067 
x,y,z [Debye]:     1.327698    -1.147899    -0.000170 

 

-------------
DIPOLE MOMENT
-------------

Method             : TDA/CIS
Type of density    : Electron Density
Level              : Relaxed density
State              :   2
Multiplicity       :   3
Irrep              :   0
Energy             :     0.0000000000000000 Eh
Relativity type    : 
Basis              : AO
                                X                 Y                 Z
Electronic contribution:      0.590409287       1.960807957      -0.000175095
Nuclear contribution   :     -0.093483864      -2.435516140       0.000238033
                        -----------------------------------------
Total Dipole Moment    :      0.496925423      -0.474708183       0.000062938
                        -----------------------------------------
Magnitude (a.u.)       :      0.687228302
Magnitude (Debye)      :      1.746795523



--------------------
Rotational spectrum 
--------------------
 
Rotational constants in cm-1:             0.868302             0.713014             0.464323 
Rotational constants in MHz :         26031.037987         21375.623486         13920.061861 

Dipole components along the rotational axes: 
x,y,z [a.u.] :     0.084302    -0.682038    -0.000032 
x,y,z [Debye]:     0.214279    -1.733603    -0.000082 

 

Dipole moment calculation done in   0.0 sec 

Maximum memory used throughout the entire PROP-calculation: 7.6 MB
[1740999268.099661] [ohm:3199934:0]        ib_iface.c:1059 UCX  ERROR ibv_create_cq(cqe=256) failed: Connection timed out
[1740999268.099981] [ohm:3199936:0]        ib_iface.c:1059 UCX  ERROR ibv_create_cq(cqe=256) failed: Connection timed out
[1740999268.115954] [ohm:3199933:0]        ib_iface.c:1059 UCX  ERROR ibv_create_cq(cqe=256) failed: Connection timed out
[1740999268.115932] [ohm:3199937:0]        ib_iface.c:1059 UCX  ERROR ibv_create_cq(cqe=256) failed: Connection timed out
[1740999268.119139] [ohm:3199935:0]        ib_iface.c:1059 UCX  ERROR ibv_create_cq(cqe=256) failed: Connection timed out
[1740999268.122808] [ohm:3199938:0]        ib_iface.c:1059 UCX  ERROR ibv_create_cq(cqe=256) failed: Connection timed out
[1740999268.122794] [ohm:3199940:0]        ib_iface.c:1059 UCX  ERROR ibv_create_cq(cqe=256) failed: Connection timed out
[1740999268.122824] [ohm:3199942:0]        ib_iface.c:1059 UCX  ERROR ibv_create_cq(cqe=256) failed: Connection timed out
[1740999268.124468] [ohm:3199946:0]        ib_iface.c:1059 UCX  ERROR ibv_create_cq(cqe=256) failed: Connection timed out
[1740999268.125749] [ohm:3199941:0]        ib_iface.c:1059 UCX  ERROR ibv_create_cq(cqe=256) failed: Connection timed out
[1740999268.125781] [ohm:3199939:0]        ib_iface.c:1059 UCX  ERROR ibv_create_cq(cqe=256) failed: Connection timed out
[1740999268.126484] [ohm:3199944:0]        ib_iface.c:1059 UCX  ERROR ibv_create_cq(cqe=256) failed: Connection timed out
[1740999268.151004] [ohm:3199949:0]        ib_iface.c:1059 UCX  ERROR ibv_create_cq(cqe=256) failed: Connection timed out
[1740999268.152009] [ohm:3199961:0]        ib_iface.c:1059 UCX  ERROR ibv_create_cq(cqe=256) failed: Connection timed out
[1740999268.152084] [ohm:3199959:0]        ib_iface.c:1059 UCX  ERROR ibv_create_cq(cqe=256) failed: Connection timed out
[1740999268.190258] [ohm:3199955:0]        ib_iface.c:1059 UCX  ERROR ibv_create_cq(cqe=256) failed: Connection timed out

--------------------------------
SUGGESTED CITATIONS FOR THIS RUN
--------------------------------

Below you find a list of papers that are relevant to this ORCA run
We neither can nor want to force you to cite these papers, but we appreciate if you do
You receive ORCA, which is the product of decades of hard work by many enthusiastic individuals, for free
The only thing we kindly ask in return is that you cite our papers,
We deeply appreciate it, if you show your appreciation for ORCA by not just citing the generic ORCA reference.

Please note that relegating all ORCA citations to the supporting information does *not* help us.
SI sections are not indexed - citations you put there will not count into any citation statistics
But we need these citations in order to attract the funding resources that allow us to do what we are doing

Therefore, if you are a happy ORCA user, please consider citing a few of the papers listed below in the main body of your paper

In addition to the list printed below, the program has created the file orca.bibtex that contains the list in bibtex format
You can import this file easily into all common literature databanks and citation aid programs


List of essential papers. We consider these as the minimum necessary citations

  1. Neese,F.
     Software update: the ORCA program system, version 5.0
     WIRES Comput. Molec. Sci., 2022 12(1)e1606
     doi.org/10.1002/wcms.1606

List of papers to cite with high priority. The work reported in these papers was absolutely
necessary for this run to complete.
Our perspective: the developers of density functionals and basis sets usually get cited in chemistry papers
Good! But without the algorithms to do something with them, the functionals or basis sets would not do anything.
Hence, in our opinion, the algorithm design and method developments papers are equally worthy of getting cited

  1. Neese,F.; Olbrich,G.
     Efficient use of the resolution of the identity approximation in time-dependent density functional calculations with hybrid density functionals
     Chem. Phys. Lett., 2002 362 170-178
     doi.org/10.1016/s0009-2614(02)01053-9
  2. Neese,F.
     An improvement of the resolution of the identity approximation for the formation of the Coulomb matrix
     J. Comp. Chem., 2003 24(14)1740-1747
     doi.org/10.1002/jcc.10318
  3. Neese,F.; Wennmohs,F.; Hansen,A.; Becker,U.
     Efficient, approximate and parallel Hartree-Fock and hybrid DFT calculations. A 'chain-of-spheres' algorithm for the Hartree-Fock exchange
     Chem. Phys., 2009 356(1-3)98-109
     doi.org/10.1016/j.chemphys.2008.10.036
  4. Petrenko,T.; Kossmann,S.; Neese,F.
     Efficient time-dependent density functional theory approximations for hybrid density functionals: Analytical gradients and parallelization
     J. Chem. Phys., 2011 134 054116
     doi.org/10.1063/1.3533441
  5. Helmich-Paris,B.; de Souza,B.; Neese,F.; Izsák,R.
     An improved chain of spheres for exchange algorithm
     J. Chem. Phys., 2021 155 104109
     doi.org/doi: 10.1063/5.0058766.
  6. Neese,F.
     The SHARK Integral Generation and Digestion System
     J. Comp. Chem., 2022  1-16
     doi.org/10.1002/jcc.26942
  7. Lehtola,S.; Steigemann,C.; Oliveira,M.; Marques,M.
     Recent developments in Libxc - A comprehensive library of functionals for density functional theory
     Software X, 2018 7 
     doi.org/10.1016/j.softx.2017.11.002
  8. Grimme,S.; Antony,J.; Ehrlich,S.; Krieg,H.
     A consistent and accurate ab initio parametrization of density functional dispersion correction (DFT-D) for the 94 elements H-Pu
     J. Chem. Phys., 2010 132 154104-XXXX
     doi.org/10.1063/1.3382344
  9. Grimme,S.; Ehrlich,S.; Goerigk,L.
     Effect of the damping function in dispersion corrected density functional theory
     J. Comput. Chem., 2011 32(7)1456-1465
     doi.org/10.1002/jcc.21759

List of suggested additional citations. These are papers that are important in the 'surrounding' of 
of this run, or papers that preceded the highly important papers. If you like your results we are grateful for a citation.

  1. Izsak,R.; Neese,F.
     An overlap fitted chain of spheres exchange method
     J. Chem. Phys., 2011 135 144105
     doi.org/10.1063/1.3646921
  2. Izsak,R.; Hansen,A.; Neese,F.
     The resolution of identity and chain of spheres approximations for the LPNO-CCSD singles Fock term
     Molec. Phys., 2012 110 2413-2417
     doi.org/10.1080/00268976.2012.687466
  3. Neese,F.
     The ORCA program system
     WIRES Comput. Molec. Sci., 2012 2(1)73-78
     doi.org/10.1002/wcms.81
  4. Izsak,R.; Neese,F.; Klopper,W.
     Robust fitting techniques in the chain of spheres approximation to the Fock exchange: The role of the complementary space
     J. Chem. Phys., 2013 139 
     doi.org/10.1063/1.4819264
  5. Neese,F.
     Software update: the ORCA program system, version 4.0
     WIRES Comput. Molec. Sci., 2018 8(1)1-6
     doi.org/10.1002/wcms.1327
  6. Neese,F.; Wennmohs,F.; Becker,U.; Riplinger,C.
     The ORCA quantum chemistry program package
     J. Chem. Phys., 2020 152 Art. No. L224108
     doi.org/10.1063/5.0004608

List of optional additional citations

  1. Neese,F.
     Approximate second-order SCF convergence for spin unrestricted wavefunctions
     Chem. Phys. Lett., 2000 325(1-3)93-98
     doi.org/10.1016/s0009-2614(00)00662-x

Timings for individual modules:

Sum of individual times          ...       18.780 sec (=   0.313 min)
Startup calculation              ...        1.009 sec (=   0.017 min)   5.4 %
SCF iterations                   ...        7.900 sec (=   0.132 min)  42.1 %
Property integrals               ...        0.719 sec (=   0.012 min)   3.8 %
Property calculations            ...        0.675 sec (=   0.011 min)   3.6 %
CIS module                       ...        8.477 sec (=   0.141 min)  45.1 %
                             ****ORCA TERMINATED NORMALLY****
TOTAL RUN TIME: 0 days 0 hours 0 minutes 19 seconds 542 msec
