
                                 *****************
                                 * O   R   C   A *
                                 *****************

                                            #,                                       
                                            ###                                      
                                            ####                                     
                                            #####                                    
                                            ######                                   
                                           ########,                                 
                                     ,,################,,,,,                         
                               ,,#################################,,                 
                          ,,##########################################,,             
                       ,#########################################, ''#####,          
                    ,#############################################,,   '####,        
                  ,##################################################,,,,####,       
                ,###########''''           ''''###############################       
              ,#####''   ,,,,##########,,,,          '''####'''          '####       
            ,##' ,,,,###########################,,,                        '##       
           ' ,,###''''                  '''############,,,                           
         ,,##''                                '''############,,,,        ,,,,,,###''
      ,#''                                            '''#######################'''  
     '                                                          ''''####''''         
             ,#######,   #######,   ,#######,      ##                                
            ,#'     '#,  ##    ##  ,#'     '#,    #''#        ,####,   ,####,        
            ##       ##  ##   ,#'  ##            #'  '#       #'       #'  '#        
            ##       ##  #######   ##           ,######,      #####,   #    #        
            '#,     ,#'  ##    ##  '#,     ,#' ,#      #,     #,   #   #,  ,#        
             '#######'   ##     ##  '#######'  #'      '#     '####' # '####'        



                #########################################################
                #                        -***-                          #
                #          Department of theory and spectroscopy        #
                #                                                       #
                #                      Frank Neese                      #
                #                                                       #
                #     Directorship, Architecture, Infrastructure        #
                #                    SHARK, DRIVERS                     #
                #        Core code/Algorithms in most modules           #
                #                                                       #
                #        Max Planck Institute fuer Kohlenforschung      #
                #                Kaiser Wilhelm Platz 1                 #
                #                 D-45470 Muelheim/Ruhr                 #
                #                      Germany                          #
                #                                                       #
                #                  All rights reserved                  #
                #                        -***-                          #
                #########################################################


                         Program Version 6.0.0  -   RELEASE  -


 With contributions from (in alphabetic order):
   Daniel Aravena         : Magnetic Suceptibility
   Michael Atanasov       : Ab Initio Ligand Field Theory (pilot matlab implementation)
   Alexander A. Auer      : GIAO ZORA, VPT2 properties, NMR spectrum
   Ute Becker             : All parallelization in ORCA, NUMFREQ, NUMCALC
   Giovanni Bistoni       : ED, misc. LED, open-shell LED, HFLD
   Martin Brehm           : Molecular dynamics
   Dmytro Bykov           : pre 5.0 version of the SCF Hessian
   Marcos Casanova-Páez   : Triplet and SCS-CIS(D). UHF-(DLPNO)-IP/EA/STEOM-CCSD. UHF-CVS-IP/STEOM-CCSD
   Vijay G. Chilkuri      : MRCI spin determinant printing, contributions to CSF-ICE
   Pauline Colinet        : FMM embedding
   Dipayan Datta          : RHF DLPNO-CCSD density
   Achintya Kumar Dutta   : EOM-CC, STEOM-CC
   Nicolas Foglia         : Exact transition moments, OPA infrastructure, MCD improvements
   Dmitry Ganyushin       : Spin-Orbit,Spin-Spin,Magnetic field MRCI
   Miquel Garcia          : C-PCM and meta-GGA Hessian, CCSD/C-PCM, Gaussian charge scheme
   Tiago L. C. Gouveia    : GS-ROHF, GS-ROCIS
   Yang Guo               : DLPNO-NEVPT2, F12-NEVPT2, CIM, IAO-localization
   Andreas Hansen         : Spin unrestricted coupled pair/coupled cluster methods
   Ingolf Harden          : AUTO-CI MPn and infrastructure 
   Benjamin Helmich-Paris : MC-RPA, TRAH-(SCF,CASSCF), AVAS, COSX integrals, SCF dyn. polar.
   Lee Huntington         : MR-EOM, pCC
   Robert Izsak           : Overlap fitted RIJCOSX, COSX-SCS-MP3, EOM
   Riya Kayal             : Wick's Theorem for AUTO-CI, AUTO-CI UHF-CCSDT
   Emily Kempfer          : AUTO-CI, RHF CISDT and CCSDT
   Christian Kollmar      : KDIIS, OOCD, Brueckner-CCSD(T), CCSD density, CASPT2, CASPT2-K, improved NEVPT2
   Axel Koslowski         : Symmetry handling
   Simone Kossmann        : Meta GGA functionals, TD-DFT gradient, OOMP2, (MP2 Hessian; deprecated post 5.0)
   Lucas Lang             : DCDCAS
   Marvin Lechner         : AUTO-CI (C++ implementation), FIC-MRCC
   Spencer Leger          : CASSCF response
   Dagmar Lenk            : GEPOL surface, SMD, ORCA-2-JSON
   Dimitrios Liakos       : Extrapolation schemes; Compound Job, initial MDCI parallelization
   Dimitrios Manganas     : Further ROCIS development; embedding schemes. LFT, Crystal Embedding
   Dimitrios Pantazis     : SARC Basis sets
   Anastasios Papadopoulos: AUTO-CI, single reference methods and gradients
   Taras Petrenko         : pre 6.0 DFT Hessian and TD-DFT gradient, (ASA, deprecated), ECA, 1-Electron XAS/XES, NRVS
   Peter Pinski           : DLPNO-MP2, DLPNO-MP2 Gradient
   Christoph Reimann      : Effective Core Potentials
   Marius Retegan         : Local ZFS, SOC
   Christoph Riplinger    : Optimizer, TS searches, QM/MM, DLPNO-CCSD(T), (RO)-DLPNO pert. Triples
   Michael Roemelt        : Original ROCIS implementation
   Masaaki Saitow         : Open-shell DLPNO-CCSD energy and density
   Barbara Sandhoefer     : DKH picture change effects
   Kantharuban Sivalingam : CASSCF convergence/infrastructure, NEVPT2 and variants, FIC-MRCI
   Bernardo de Souza      : ESD, SOC TD-DFT
   Georgi Stoychev        : AutoAux, RI-MP2 NMR, DLPNO-MP2 response, X2C
   Van Anh Tran           : RI-MP2 g-tensors
   Willem Van den Heuvel  : Paramagnetic NMR
   Zikuan Wang            : NOTCH, Electric field optimization 
   Frank Wennmohs         : Technical directorship and infrastructure
   Hang Xu                : AUTO-CI-Response properties 


 We gratefully acknowledge several colleagues who have allowed us to
 interface, adapt or use parts of their codes:
   Stefan Grimme, W. Hujo, H. Kruse, P. Pracht,  : VdW corrections, initial TS optimization,
                  C. Bannwarth, S. Ehlert,         DFT functionals, gCP, sTDA/sTD-DF
                  L. Wittmann, M. Mueller
   Ed Valeev, F. Pavosevic, A. Kumar             : LibInt (2-el integral package), F12 methods
   Garnet Chan, S. Sharma, J. Yang, R. Olivares  : DMRG
   Ulf Ekstrom                                   : XCFun DFT Library
   Mihaly Kallay                                 : mrcc  (arbitrary order and MRCC methods)
   Frank Weinhold                                : gennbo (NPA and NBO analysis)
   Simon Mueller                                 : openCOSMO-RS
   Christopher J. Cramer and Donald G. Truhlar   : smd solvation model
   Lars Goerigk                                  : TD-DFT with DH, B97 family of functionals
   V. Asgeirsson, H. Jonsson                     : NEB implementation
   FAccTs GmbH                                   : IRC, NEB, NEB-TS, DLPNO-Multilevel, CI-OPT
                                                   MM, QMMM, 2- and 3-layer-ONIOM, Crystal-QMMM,
                                                   LR-CPCM, SF, NACMEs, symmetry and pop. for TD-DFT,
                                                   nearIR, NL-DFT gradient (VV10), updates on ESD,
                                                   ML-optimized integration grids, MBIS, APM,
                                                   GOAT, DOCKER, SOLVATOR, interface openCOSMO-RS
   S Lehtola, MJT Oliveira, MAL Marques          : LibXC Library
   Liviu Ungur et al                             : ANISO software


 Your calculation uses the libint2 library for the computation of 2-el integrals
 For citations please refer to: http://libint.valeyev.net

 Your ORCA version has been built with support for libXC version: 6.2.2
 For citations please refer to: https://libxc.gitlab.io

 This ORCA versions uses:
   CBLAS   interface :  Fast vector & matrix operations
   LAPACKE interface :  Fast linear algebra routines
   SCALAPACK package :  Parallel linear algebra routines
   Shared memory     :  Shared parallel matrices
   BLAS/LAPACK       :  OpenBLAS 0.3.27  USE64BITINT DYNAMIC_ARCH NO_AFFINITY Zen SINGLE_THREADED
        Core in use  :  Zen
   Copyright (c) 2011-2014, The OpenBLAS Project


Your calculation utilizes the atom-pairwise dispersion correction
with the Becke-Johnson damping scheme (D3BJ)


Warning: RI is on but no J-basis has been assigned. Assigning Def2/J (nothing to worry about!)
================================================================================

----- Orbital basis set information -----
Your calculation utilizes the basis: def2-TZVPPD
   F. Weigend and R. Ahlrichs, Phys. Chem. Chem. Phys. 7, 3297 (2005).
   D. Rappoport and F. Furche, J. Chem. Phys. 133, 134105 (2010)
   D. Rappoport, J. Chem. Phys. 155, 124102 (2021).

----- AuxJ basis set information -----
Your calculation utilizes the auxiliary basis: def2/J
   F. Weigend, Phys. Chem. Chem. Phys. 8, 1057 (2006).

================================================================================
                                        WARNINGS
                       Please study these warnings very carefully!
================================================================================

Using LibXC functional ID 531 : wB97M-V exchange-correlation functional
[ 1]  N. Mardirossian and M. Head-Gordon.,  J. Chem. Phys. 144, 214110 (2016)
Using LibXC functional ID 531 : wB97M-V exchange-correlation functional
[ 1]  N. Mardirossian and M. Head-Gordon.,  J. Chem. Phys. 144, 214110 (2016)

WARNING: B97M-V or wB97M-V functional requested.
  ===> : libXC variant has now been activated.
         Any manually given DFX/HFX/RangeSep scaling parameters are IGNORED!

Your calculation utilizes LibXC
 by S Lehtola, C Steigemann, MJT Oliveira & MAL Marques
Please cite in your paper:
 S Lehtola, C Steigemann, MJT Oliveira & MAL Marques, SoftwareX, 7, (2018), 1.
   


WARNING: your system is open-shell and RHF/RKS was chosen
  ===> : WILL SWITCH to UHF/UKS

INFO   : Checking CIS options ...

WARNING: CIS/ROCIS methods need fully converged wavefunctions
  ===> : Setting SCFConvForced true
         You can overwrite this default with %scf ConvForced false 


================================================================================
                                       INPUT FILE
================================================================================
NAME = orca.inp
|  1> ! Engrad def2-TZVPPD wB97M-D3BJ 
|  2> %pal nprocs 8 end%pal nprocs 64 end 
|  3> %tddft Nroots 2 Iroot 1 
|  4> sf true 
|  5> end 
|  6> *xyz 0 3 
|  7> O   2.45451553 1.26971606 -0.32121001
|  8> O   -0.82352908 0.80565122 -2.39958022
|  9> O   0.52806155 -2.63075348 -1.61130108
| 10> O   -2.39365088 -1.52224793 1.16602653
| 11> N   0.63098439 -2.15725908 0.60840909
| 12> N   -1.84136829 0.6662339 1.44687632
| 13> N   1.59532048 -0.73067543 -0.92249822
| 14> N   -1.66458839 -0.31009339 -0.63187416
| 15> C   1.51350647 -0.05970473 1.37853952
| 16> C   -0.92130838 1.96638993 -0.33289912
| 17> C   0.87542358 -1.26192986 1.61766624
| 18> C   -1.2868432 1.82239861 0.94887038
| 19> C   1.78660155 0.93008424 2.45142343
| 20> C   -0.27554814 3.19930162 -0.88685598
| 21> C   1.90720403 0.23805359 0.03222297
| 22> C   -1.11068931 0.82761265 -1.22842919
| 23> C   0.89950065 -1.89737462 -0.71797373
| 24> C   -2.00755194 -0.47539442 0.69567378
| 25> H   0.55342225 -1.52448633 2.60245686
| 26> H   -1.1657288 2.61931614 1.67422637
| 27> H   1.37535066 1.88355379 2.19003872
| 28> H   1.38269131 0.62896324 3.42053793
| 29> H   2.84646954 1.12599395 2.5559471
| 30> H   -0.83153759 3.57370914 -1.75329109
| 31> H   -0.24286425 4.00797768 -0.16744981
| 32> H   0.72998649 2.9912824 -1.22841649
| 33> H   0.03785632 -2.95353196 0.77413333
| 34> H   -2.08807247 0.61436597 2.40929139
| 35> H   1.75379952 -0.49634622 -1.90756493
| 36> H   -1.74062029 -1.11162724 -1.24017764
| 37> *
| 38> 
| 39>                          ****END OF INPUT****
================================================================================

                     *******************************
                     * Energy+Gradient Calculation *
                     *******************************

---------------------------------
CARTESIAN COORDINATES (ANGSTROEM)
---------------------------------
  O      2.454516    1.269716   -0.321210
  O     -0.823529    0.805651   -2.399580
  O      0.528062   -2.630753   -1.611301
  O     -2.393651   -1.522248    1.166027
  N      0.630984   -2.157259    0.608409
  N     -1.841368    0.666234    1.446876
  N      1.595320   -0.730675   -0.922498
  N     -1.664588   -0.310093   -0.631874
  C      1.513506   -0.059705    1.378540
  C     -0.921308    1.966390   -0.332899
  C      0.875424   -1.261930    1.617666
  C     -1.286843    1.822399    0.948870
  C      1.786602    0.930084    2.451423
  C     -0.275548    3.199302   -0.886856
  C      1.907204    0.238054    0.032223
  C     -1.110689    0.827613   -1.228429
  C      0.899501   -1.897375   -0.717974
  C     -2.007552   -0.475394    0.695674
  H      0.553422   -1.524486    2.602457
  H     -1.165729    2.619316    1.674226
  H      1.375351    1.883554    2.190039
  H      1.382691    0.628963    3.420538
  H      2.846470    1.125994    2.555947
  H     -0.831538    3.573709   -1.753291
  H     -0.242864    4.007978   -0.167450
  H      0.729986    2.991282   -1.228416
  H      0.037856   -2.953532    0.774133
  H     -2.088072    0.614366    2.409291
  H      1.753800   -0.496346   -1.907565
  H     -1.740620   -1.111627   -1.240178

----------------------------
CARTESIAN COORDINATES (A.U.)
----------------------------
  NO LB      ZA    FRAG     MASS         X           Y           Z
   0 O     8.0000    0    15.999    4.638362    2.399416   -0.606999
   1 O     8.0000    0    15.999   -1.556244    1.522460   -4.534549
   2 O     8.0000    0    15.999    0.997892   -4.971404   -3.044918
   3 O     8.0000    0    15.999   -4.523345   -2.876632    2.203471
   4 N     7.0000    0    14.007    1.192388   -4.076629    1.149727
   5 N     7.0000    0    14.007   -3.479682    1.259000    2.734200
   6 N     7.0000    0    14.007    3.014719   -1.380776   -1.743269
   7 N     7.0000    0    14.007   -3.145616   -0.585992   -1.194069
   8 C     6.0000    0    12.011    2.860113   -0.112826    2.605062
   9 C     6.0000    0    12.011   -1.741021    3.715938   -0.629088
  10 C     6.0000    0    12.011    1.654311   -2.384702    3.056946
  11 C     6.0000    0    12.011   -2.431781    3.443834    1.793105
  12 C     6.0000    0    12.011    3.376188    1.757604    4.632519
  13 C     6.0000    0    12.011   -0.520711    6.045804   -1.675915
  14 C     6.0000    0    12.011    3.604093    0.449856    0.060893
  15 C     6.0000    0    12.011   -2.098899    1.563961   -2.321395
  16 C     6.0000    0    12.011    1.699810   -3.585518   -1.356774
  17 C     6.0000    0    12.011   -3.793723   -0.898365    1.314633
  18 H     1.0000    0     1.008    1.045816   -2.880862    4.917931
  19 H     1.0000    0     1.008   -2.202908    4.949790    3.163829
  20 H     1.0000    0     1.008    2.599036    3.559401    4.138573
  21 H     1.0000    0     1.008    2.612908    1.188568    6.463880
  22 H     1.0000    0     1.008    5.379048    2.127820    4.830040
  23 H     1.0000    0     1.008   -1.571378    6.753332   -3.313240
  24 H     1.0000    0     1.008   -0.458947    7.573980   -0.316434
  25 H     1.0000    0     1.008    1.379475    5.652705   -2.321371
  26 H     1.0000    0     1.008    0.071538   -5.581367    1.462900
  27 H     1.0000    0     1.008   -3.945885    1.160983    4.552901
  28 H     1.0000    0     1.008    3.314201   -0.937958   -3.604775
  29 H     1.0000    0     1.008   -3.289296   -2.100671   -2.343596

--------------------------------
INTERNAL COORDINATES (ANGSTROEM)
--------------------------------
 O      0   0   0     0.000000000000     0.00000000     0.00000000
 O      1   0   0     3.909035094584     0.00000000     0.00000000
 O      2   1   0     3.775852022504    72.35424076     0.00000000
 O      3   2   1     4.180757913497    69.34268726    96.07856696
 N      3   2   1     2.271982239505    91.74841370    53.02259427
 N      4   3   2     2.274498930314    99.63984329   319.73410624
 N      1   2   3     2.258612352462    55.54965100     0.54551515
 N      2   1   3     2.253231349028    87.40270607    60.61612601
 C      1   2   3     2.354146586902    88.94835462   303.59260081
 C      2   1   3     2.372350293169    60.87608693   120.75606023
 C      5   3   2     1.371118129345   149.69045905   323.05313002
 C     10   2   1     1.340627560510   142.33467820   257.19288785
 C      9   1   2     1.485039734213    94.11393016   231.64890334
 C     10   2   1     1.497980549154    93.59924600    74.56488598
 C      1   2   3     1.220160727687    71.18464130   328.26647209
 C      2   1   3     1.206042303226    71.40985478    89.72790535
 C      3   2   1     1.214020309370    73.34289946    27.95782829
 C      4   3   2     1.210870088945    75.42471948   338.49602349
 H     11   5   3     1.068846725074   117.65098404   166.49331814
 H     12  10   2     1.084383492929   122.01608084   178.97189103
 H     13   9   1     1.070772358592   110.27355202    53.96305254
 H     13   9   1     1.092245509365   112.90863862   175.73246297
 H     13   9   1     1.082878556575   111.73449571   299.07674579
 H     14  10   2     1.095451988626   110.79345751    55.89407540
 H     14  10   2     1.082852918968   112.45658144   175.06748008
 H     14  10   2     1.082143922965   111.04352064   297.48300269
 H      5   3   2     1.006635947386    88.24062578   123.01193078
 H      6   4   3     0.994884918749    90.51986828   215.70003724
 H      7   1   2     1.024881558000    89.68798769    64.32331567
 H      8   2   1     1.009093893695    87.04920655   241.52465486

---------------------------
INTERNAL COORDINATES (A.U.)
---------------------------
 O      0   0   0     0.000000000000     0.00000000     0.00000000
 O      1   0   0     7.387005776651     0.00000000     0.00000000
 O      2   1   0     7.135326244745    72.35424076     0.00000000
 O      3   2   1     7.900487488733    69.34268726    96.07856696
 N      3   2   1     4.293424213798    91.74841370    53.02259427
 N      4   3   2     4.298180070191    99.63984329   319.73410624
 N      1   2   3     4.268158788845    55.54965100     0.54551515
 N      2   1   3     4.257990166029    87.40270607    60.61612601
 C      1   2   3     4.448692328350    88.94835462   303.59260081
 C      2   1   3     4.483092347817    60.87608693   120.75606023
 C      5   3   2     2.591037761717   149.69045905   323.05313002
 C     10   2   1     2.533418936950   142.33467820   257.19288785
 C      9   1   2     2.806318395653    94.11393016   231.64890334
 C     10   2   1     2.830772991843    93.59924600    74.56488598
 C      1   2   3     2.305769614695    71.18464130   328.26647209
 C      2   1   3     2.279089659021    71.40985478    89.72790535
 C      3   2   1     2.294165905727    73.34289946    27.95782829
 C      4   3   2     2.288212851862    75.42471948   338.49602349
 H     11   5   3     2.019827589528   117.65098404   166.49331814
 H     12  10   2     2.049187825781   122.01608084   178.97189103
 H     13   9   1     2.023466509512   110.27355202    53.96305254
 H     13   9   1     2.064044883705   112.90863862   175.73246297
 H     13   9   1     2.046343908222   111.73449571   299.07674579
 H     14  10   2     2.070104251362   110.79345751    55.89407540
 H     14  10   2     2.046295460166   112.45658144   175.06748008
 H     14  10   2     2.044955651891   111.04352064   297.48300269
 H      5   3   2     1.902266257119    88.24062578   123.01193078
 H      6   4   3     1.880060031205    90.51986828   215.70003724
 H      7   1   2     1.936745464327    89.68798769    64.32331567
 H      8   2   1     1.906911102497    87.04920655   241.52465486

---------------------
BASIS SET INFORMATION
---------------------
There are 4 groups of distinct atoms

 Group   1 Type O   : 12s7p3d1f contracted to 6s4p3d1f pattern {621111/4111/111/1}
 Group   2 Type N   : 12s6p3d1f contracted to 6s3p3d1f pattern {621111/411/111/1}
 Group   3 Type C   : 12s6p3d1f contracted to 6s3p3d1f pattern {621111/411/111/1}
 Group   4 Type H   : 5s3p1d contracted to 3s3p1d pattern {311/111/1}

Atom   0O    basis set group =>   1
Atom   1O    basis set group =>   1
Atom   2O    basis set group =>   1
Atom   3O    basis set group =>   1
Atom   4N    basis set group =>   2
Atom   5N    basis set group =>   2
Atom   6N    basis set group =>   2
Atom   7N    basis set group =>   2
Atom   8C    basis set group =>   3
Atom   9C    basis set group =>   3
Atom  10C    basis set group =>   3
Atom  11C    basis set group =>   3
Atom  12C    basis set group =>   3
Atom  13C    basis set group =>   3
Atom  14C    basis set group =>   3
Atom  15C    basis set group =>   3
Atom  16C    basis set group =>   3
Atom  17C    basis set group =>   3
Atom  18H    basis set group =>   4
Atom  19H    basis set group =>   4
Atom  20H    basis set group =>   4
Atom  21H    basis set group =>   4
Atom  22H    basis set group =>   4
Atom  23H    basis set group =>   4
Atom  24H    basis set group =>   4
Atom  25H    basis set group =>   4
Atom  26H    basis set group =>   4
Atom  27H    basis set group =>   4
Atom  28H    basis set group =>   4
Atom  29H    basis set group =>   4
---------------------------------
AUXILIARY/J BASIS SET INFORMATION
---------------------------------
There are 4 groups of distinct atoms

 Group   1 Type O   : 12s5p4d2f1g contracted to 6s4p3d1f1g pattern {711111/2111/211/2/1}
 Group   2 Type N   : 12s5p4d2f1g contracted to 6s4p3d1f1g pattern {711111/2111/211/2/1}
 Group   3 Type C   : 12s5p4d2f1g contracted to 6s4p3d1f1g pattern {711111/2111/211/2/1}
 Group   4 Type H   : 5s2p1d contracted to 3s1p1d pattern {311/2/1}

Atom   0O    basis set group =>   1
Atom   1O    basis set group =>   1
Atom   2O    basis set group =>   1
Atom   3O    basis set group =>   1
Atom   4N    basis set group =>   2
Atom   5N    basis set group =>   2
Atom   6N    basis set group =>   2
Atom   7N    basis set group =>   2
Atom   8C    basis set group =>   3
Atom   9C    basis set group =>   3
Atom  10C    basis set group =>   3
Atom  11C    basis set group =>   3
Atom  12C    basis set group =>   3
Atom  13C    basis set group =>   3
Atom  14C    basis set group =>   3
Atom  15C    basis set group =>   3
Atom  16C    basis set group =>   3
Atom  17C    basis set group =>   3
Atom  18H    basis set group =>   4
Atom  19H    basis set group =>   4
Atom  20H    basis set group =>   4
Atom  21H    basis set group =>   4
Atom  22H    basis set group =>   4
Atom  23H    basis set group =>   4
Atom  24H    basis set group =>   4
Atom  25H    basis set group =>   4
Atom  26H    basis set group =>   4
Atom  27H    basis set group =>   4
Atom  28H    basis set group =>   4
Atom  29H    basis set group =>   4
[1739880705.397680] [ohm:49939:0]        ib_iface.c:1059 UCX  ERROR ibv_create_cq(cqe=256) failed: Connection timed out
[1739880705.397816] [ohm:49940:0]        ib_iface.c:1059 UCX  ERROR ibv_create_cq(cqe=256) failed: Connection timed out
[1739880705.401230] [ohm:49934:0]        ib_iface.c:1059 UCX  ERROR ibv_create_cq(cqe=256) failed: Connection timed out
[1739880705.405354] [ohm:49941:0]        ib_iface.c:1059 UCX  ERROR ibv_create_cq(cqe=256) failed: Connection timed out
[1739880705.413700] [ohm:49952:0]        ib_iface.c:1059 UCX  ERROR ibv_create_cq(cqe=256) failed: Connection timed out
[1739880705.416798] [ohm:49942:0]        ib_iface.c:1059 UCX  ERROR ibv_create_cq(cqe=256) failed: Connection timed out
[1739880705.419587] [ohm:49938:0]        ib_iface.c:1059 UCX  ERROR ibv_create_cq(cqe=256) failed: Connection timed out
[1739880705.421328] [ohm:49946:0]        ib_iface.c:1059 UCX  ERROR ibv_create_cq(cqe=256) failed: Connection timed out
[1739880705.424879] [ohm:49935:0]        ib_iface.c:1059 UCX  ERROR ibv_create_cq(cqe=256) failed: Connection timed out
[1739880705.454765] [ohm:49947:0]        ib_iface.c:1059 UCX  ERROR ibv_create_cq(cqe=256) failed: Connection timed out
[1739880705.466231] [ohm:49937:0]        ib_iface.c:1059 UCX  ERROR ibv_create_cq(cqe=256) failed: Connection timed out
[1739880705.475645] [ohm:49944:0]        ib_iface.c:1059 UCX  ERROR ibv_create_cq(cqe=256) failed: Connection timed out
[1739880705.486693] [ohm:49945:0]        ib_iface.c:1059 UCX  ERROR ibv_create_cq(cqe=256) failed: Connection timed out
[1739880705.494878] [ohm:49961:0]        ib_iface.c:1059 UCX  ERROR ibv_create_cq(cqe=256) failed: Connection timed out
[1739880705.500039] [ohm:49972:0]        ib_iface.c:1059 UCX  ERROR ibv_create_cq(cqe=256) failed: Connection timed out
[1739880705.509734] [ohm:49969:0]        ib_iface.c:1059 UCX  ERROR ibv_create_cq(cqe=256) failed: Connection timed out
[1739880705.511938] [ohm:49965:0]        ib_iface.c:1059 UCX  ERROR ibv_create_cq(cqe=256) failed: Connection timed out
[1739880705.513576] [ohm:49967:0]        ib_iface.c:1059 UCX  ERROR ibv_create_cq(cqe=256) failed: Connection timed out
[1739880705.528035] [ohm:49975:0]        ib_iface.c:1059 UCX  ERROR ibv_create_cq(cqe=256) failed: Connection timed out
[1739880705.529425] [ohm:49943:0]        ib_iface.c:1059 UCX  ERROR ibv_create_cq(cqe=256) failed: Connection timed out
[1739880705.554018] [ohm:49978:0]        ib_iface.c:1059 UCX  ERROR ibv_create_cq(cqe=256) failed: Connection timed out
[1739880705.557045] [ohm:50076:0]        ib_iface.c:1059 UCX  ERROR ibv_create_cq(cqe=256) failed: Connection timed out
[1739880705.573444] [ohm:50058:0]        ib_iface.c:1059 UCX  ERROR ibv_create_cq(cqe=256) failed: Connection timed out
[1739880705.586622] [ohm:50060:0]        ib_iface.c:1059 UCX  ERROR ibv_create_cq(cqe=256) failed: Connection timed out
[1739880705.591355] [ohm:50032:0]        ib_iface.c:1059 UCX  ERROR ibv_create_cq(cqe=256) failed: Connection timed out
[1739880705.593668] [ohm:49977:0]        ib_iface.c:1059 UCX  ERROR ibv_create_cq(cqe=256) failed: Connection timed out
[1739880705.594894] [ohm:50064:0]        ib_iface.c:1059 UCX  ERROR ibv_create_cq(cqe=256) failed: Connection timed out
[1739880705.598885] [ohm:50025:0]        ib_iface.c:1059 UCX  ERROR ibv_create_cq(cqe=256) failed: Connection timed out
[1739880705.601122] [ohm:49936:0]        ib_iface.c:1059 UCX  ERROR ibv_create_cq(cqe=256) failed: Connection timed out
[1739880705.605417] [ohm:50052:0]        ib_iface.c:1059 UCX  ERROR ibv_create_cq(cqe=256) failed: Connection timed out
[1739880705.609299] [ohm:50040:0]        ib_iface.c:1059 UCX  ERROR ibv_create_cq(cqe=256) failed: Connection timed out
[1739880705.612260] [ohm:50047:0]        ib_iface.c:1059 UCX  ERROR ibv_create_cq(cqe=256) failed: Connection timed out
[1739880705.620407] [ohm:50054:0]        ib_iface.c:1059 UCX  ERROR ibv_create_cq(cqe=256) failed: Connection timed out
[1739880705.625605] [ohm:50066:0]        ib_iface.c:1059 UCX  ERROR ibv_create_cq(cqe=256) failed: Connection timed out
[1739880705.626231] [ohm:49974:0]        ib_iface.c:1059 UCX  ERROR ibv_create_cq(cqe=256) failed: Connection timed out
[1739880705.637368] [ohm:49933:0]        ib_iface.c:1059 UCX  ERROR ibv_create_cq(cqe=256) failed: Connection timed out
[1739880705.646676] [ohm:49976:0]        ib_iface.c:1059 UCX  ERROR ibv_create_cq(cqe=256) failed: Connection timed out
[1739880705.647252] [ohm:50074:0]        ib_iface.c:1059 UCX  ERROR ibv_create_cq(cqe=256) failed: Connection timed out
[1739880705.651220] [ohm:50004:0]        ib_iface.c:1059 UCX  ERROR ibv_create_cq(cqe=256) failed: Connection timed out
[1739880705.653405] [ohm:49968:0]        ib_iface.c:1059 UCX  ERROR ibv_create_cq(cqe=256) failed: Connection timed out
[1739880705.655077] [ohm:49958:0]        ib_iface.c:1059 UCX  ERROR ibv_create_cq(cqe=256) failed: Connection timed out
[1739880705.657650] [ohm:50036:0]        ib_iface.c:1059 UCX  ERROR ibv_create_cq(cqe=256) failed: Connection timed out
[1739880705.661107] [ohm:50048:0]        ib_iface.c:1059 UCX  ERROR ibv_create_cq(cqe=256) failed: Connection timed out
[1739880705.666939] [ohm:50081:0]        ib_iface.c:1059 UCX  ERROR ibv_create_cq(cqe=256) failed: Connection timed out
[1739880705.667659] [ohm:50070:0]        ib_iface.c:1059 UCX  ERROR ibv_create_cq(cqe=256) failed: Connection timed out
[1739880705.668617] [ohm:49971:0]        ib_iface.c:1059 UCX  ERROR ibv_create_cq(cqe=256) failed: Connection timed out
[1739880705.668697] [ohm:49980:0]        ib_iface.c:1059 UCX  ERROR ibv_create_cq(cqe=256) failed: Connection timed out
[1739880705.675256] [ohm:50043:0]        ib_iface.c:1059 UCX  ERROR ibv_create_cq(cqe=256) failed: Connection timed out
[1739880705.679966] [ohm:49999:0]        ib_iface.c:1059 UCX  ERROR ibv_create_cq(cqe=256) failed: Connection timed out
[1739880705.679971] [ohm:50029:0]        ib_iface.c:1059 UCX  ERROR ibv_create_cq(cqe=256) failed: Connection timed out
[1739880705.680485] [ohm:49985:0]        ib_iface.c:1059 UCX  ERROR ibv_create_cq(cqe=256) failed: Connection timed out
[1739880705.683819] [ohm:50020:0]        ib_iface.c:1059 UCX  ERROR ibv_create_cq(cqe=256) failed: Connection timed out
[1739880705.686264] [ohm:49949:0]        ib_iface.c:1059 UCX  ERROR ibv_create_cq(cqe=256) failed: Connection timed out
[1739880705.688685] [ohm:49996:0]        ib_iface.c:1059 UCX  ERROR ibv_create_cq(cqe=256) failed: Connection timed out
[1739880705.689513] [ohm:50017:0]        ib_iface.c:1059 UCX  ERROR ibv_create_cq(cqe=256) failed: Connection timed out
[1739880705.691314] [ohm:50009:0]        ib_iface.c:1059 UCX  ERROR ibv_create_cq(cqe=256) failed: Connection timed out
[1739880705.691854] [ohm:49992:0]        ib_iface.c:1059 UCX  ERROR ibv_create_cq(cqe=256) failed: Connection timed out
[1739880705.692728] [ohm:49970:0]        ib_iface.c:1059 UCX  ERROR ibv_create_cq(cqe=256) failed: Connection timed out
[1739880705.694391] [ohm:49987:0]        ib_iface.c:1059 UCX  ERROR ibv_create_cq(cqe=256) failed: Connection timed out
[1739880705.694342] [ohm:50014:0]        ib_iface.c:1059 UCX  ERROR ibv_create_cq(cqe=256) failed: Connection timed out
[1739880705.694914] [ohm:50007:0]        ib_iface.c:1059 UCX  ERROR ibv_create_cq(cqe=256) failed: Connection timed out
[1739880705.695960] [ohm:49973:0]        ib_iface.c:1059 UCX  ERROR ibv_create_cq(cqe=256) failed: Connection timed out
[1739880705.695961] [ohm:49981:0]        ib_iface.c:1059 UCX  ERROR ibv_create_cq(cqe=256) failed: Connection timed out
[1739880705.696955] [ohm:50021:0]        ib_iface.c:1059 UCX  ERROR ibv_create_cq(cqe=256) failed: Connection timed out


           ************************************************************
           *        Program running with 64 parallel MPI-processes    *
           *              working on a common directory               *
           ************************************************************
------------------------------------------------------------------------------
                             ORCA STARTUP CALCULATIONS
                           -- RI-GTO INTEGRALS CHOSEN --
------------------------------------------------------------------------------
------------------------------------------------------------------------------
                   ___                                                        
                  /   \      - P O W E R E D   B Y -                         
                 /     \                                                     
                 |  |  |   _    _      __       _____    __    __             
                 |  |  |  | |  | |    /  \     |  _  \  |  |  /  |          
                  \  \/   | |  | |   /    \    | | | |  |  | /  /          
                 / \  \   | |__| |  /  /\  \   | |_| |  |  |/  /          
                |  |  |   |  __  | /  /__\  \  |    /   |      \           
                |  |  |   | |  | | |   __   |  |    \   |  |\   \          
                \     /   | |  | | |  |  |  |  | |\  \  |  | \   \       
                 \___/    |_|  |_| |__|  |__|  |_| \__\ |__|  \__/        
                                                                              
                      - O R C A' S   B I G   F R I E N D -                    
                                      &                                       
                       - I N T E G R A L  F E E D E R -                       
                                                                              
 v1 FN, 2020, v2 2021, v3 2022-2024                                           
------------------------------------------------------------------------------


----------------------
SHARK INTEGRAL PACKAGE
----------------------

Number of atoms                             ...     30
Number of basis functions                   ...    882
Number of shells                            ...    322
Maximum angular momentum                    ...      3
Integral batch strategy                     ... SHARK/LIBINT Hybrid
RI-J (if used) integral strategy            ... SPLIT-RIJ (Revised 2003 algorithm where possible)
Printlevel                                  ...      1
Contraction scheme used                     ... SEGMENTED contraction
Prescreening option                         ... SCHWARTZ
   Thresh                                   ... 2.500e-11
   Tcut                                     ... 2.500e-12
   Tpresel                                  ... 2.500e-12 
Coulomb Range Separation                    ... NOT USED
Exchange Range Separation                   ... Long Range
   Mu parameter                             ... 3.000e-01
   Scaling (regular/separated)              ... 1.500e-01 8.500e-01
Multipole approximations                    ... NOT USED
Finite Nucleus Model                        ... NOT USED
CABS basis                                  ... NOT available
Auxiliary Coulomb fitting basis             ... AVAILABLE
   # of basis functions in Aux-J            ...   1014
   # of shells in Aux-J                     ...    330
   Maximum angular momentum in Aux-J        ...      4
Auxiliary J/K fitting basis                 ... NOT available
Auxiliary Correlation fitting basis         ... NOT available
Auxiliary 'external' fitting basis          ... NOT available

Checking pre-screening integrals            ... done (  0.0 sec) Dimension = 322
Check shell pair data                       ... done (  0.0 sec)
Shell pair information
Shell pair cut-off parameter TPreSel        ...   2.5e-12
Total number of shell pairs                 ...     52003
Shell pairs after pre-screening             ...     45206
Total number of primitive shell pairs       ...    129718
Primitive shell pairs kept                  ...     83993
          la=0 lb=0:   8734 shell pairs
          la=1 lb=0:  11935 shell pairs
          la=1 lb=1:   4129 shell pairs
          la=2 lb=0:   8135 shell pairs
          la=2 lb=1:   5617 shell pairs
          la=2 lb=2:   1935 shell pairs
          la=3 lb=0:   2057 shell pairs
          la=3 lb=1:   1496 shell pairs
          la=3 lb=2:   1024 shell pairs
          la=3 lb=3:    144 shell pairs

Calculating one electron integrals          ... done (  0.2 sec)
Calculating RI/J V-Matrix + Cholesky decomp.... done (  0.1 sec)
Calculating Nuclear repulsion               ... done (  0.0 sec) ENN=   1449.455210725260 Eh

Diagonalization of the overlap matrix:
Smallest eigenvalue                        ... 5.796e-07
Time for diagonalization                   ...    0.126 sec
Threshold for overlap eigenvalues          ... 1.000e-07
Number of eigenvalues below threshold      ... 0

IMPORTANT:
Smallest eigenvalue of S below the DiffSThresh (1.000e-06) while
Thresh>1e-12 and/or TCut>1e-13! In order to avoid SCF convergence issues,
Thresh will be set to at least 1e-12 and TCut to at least 1e-13.
This can be turned off by adding %SCF DiffSThresh -1 END to the input.

Time for construction of square roots      ...    0.141 sec
Total time needed                          ...    0.283 sec

-------------------
DFT GRID GENERATION
-------------------

General Integration Accuracy     IntAcc      ... 4.388
Radial Grid Type                 RadialGrid  ... OptM3 with GC (2021)
Angular Grid (max. ang.)         AngularGrid ... 4 (Lebedev-302)
Angular grid pruning method      GridPruning ... 4 (adaptive)
Weight generation scheme         WeightScheme... mBecke (2022)
Basis function cutoff            BFCut       ... 1.0000e-11
Integration weight cutoff        WCut        ... 1.0000e-14
Partially contracted basis set               ... off
Rotationally invariant grid construction     ... off
Angular grids for H and He will be reduced by one unit
Diffuse basis detected: some atoms will have their outermost
                        angular grid increased by 1.

Total number of grid points                  ...   152239
Total number of batches                      ...     2392
Average number of points per batch           ...       63
Average number of grid points per atom       ...     5075

--------------------
COSX GRID GENERATION
--------------------

GRIDX 1
-------
General Integration Accuracy     IntAcc      ... 3.816
Radial Grid Type                 RadialGrid  ... OptM3 with GC (2021)
Angular Grid (max. ang.)         AngularGrid ... 1 (Lebedev-50)
Angular grid pruning method      GridPruning ... 4 (adaptive)
Weight generation scheme         WeightScheme... mBecke (2022)
Basis function cutoff            BFCut       ... 1.0000e-11
Integration weight cutoff        WCut        ... 1.0000e-14
Partially contracted basis set               ... on
Rotationally invariant grid construction     ... off
Angular grids for H and He will be reduced by one unit
Diffuse basis detected: some atoms will have their outermost
                        angular grid increased by 1.

Total number of grid points                  ...    19064
Total number of batches                      ...      166
Average number of points per batch           ...      114
Average number of grid points per atom       ...      635
UseSFitting                                  ... on

GRIDX 2
-------
General Integration Accuracy     IntAcc      ... 4.020
Radial Grid Type                 RadialGrid  ... OptM3 with GC (2021)
Angular Grid (max. ang.)         AngularGrid ... 2 (Lebedev-110)
Angular grid pruning method      GridPruning ... 4 (adaptive)
Weight generation scheme         WeightScheme... mBecke (2022)
Basis function cutoff            BFCut       ... 1.0000e-11
Integration weight cutoff        WCut        ... 1.0000e-14
Partially contracted basis set               ... on
Rotationally invariant grid construction     ... off
Angular grids for H and He will be reduced by one unit
Diffuse basis detected: some atoms will have their outermost
                        angular grid increased by 1.

Total number of grid points                  ...    45934
Total number of batches                      ...      374
Average number of points per batch           ...      122
Average number of grid points per atom       ...     1531
UseSFitting                                  ... on

GRIDX 3
-------
General Integration Accuracy     IntAcc      ... 4.338
Radial Grid Type                 RadialGrid  ... OptM3 with GC (2021)
Angular Grid (max. ang.)         AngularGrid ... 3 (Lebedev-194)
Angular grid pruning method      GridPruning ... 4 (adaptive)
Weight generation scheme         WeightScheme... mBecke (2022)
Basis function cutoff            BFCut       ... 1.0000e-11
Integration weight cutoff        WCut        ... 1.0000e-14
Partially contracted basis set               ... on
Rotationally invariant grid construction     ... off
Angular grids for H and He will be reduced by one unit
Diffuse basis detected: some atoms will have their outermost
                        angular grid increased by 1.

Total number of grid points                  ...   101157
Total number of batches                      ...      805
Average number of points per batch           ...      125
Average number of grid points per atom       ...     3372
UseSFitting                                  ... on
Initializing property integral containers    ... done (  0.0 sec)

SHARK setup successfully completed in   4.2 seconds

Maximum memory used throughout the entire STARTUP-calculation: 80.2 MB
[1739880711.671522] [ohm:50291:0]        ib_iface.c:1059 UCX  ERROR ibv_create_cq(cqe=256) failed: Connection timed out
[1739880711.672814] [ohm:50290:0]        ib_iface.c:1059 UCX  ERROR ibv_create_cq(cqe=256) failed: Connection timed out
[1739880711.680298] [ohm:50295:0]        ib_iface.c:1059 UCX  ERROR ibv_create_cq(cqe=256) failed: Connection timed out
[1739880711.696927] [ohm:50296:0]        ib_iface.c:1059 UCX  ERROR ibv_create_cq(cqe=256) failed: Connection timed out
[1739880711.728121] [ohm:50306:0]        ib_iface.c:1059 UCX  ERROR ibv_create_cq(cqe=256) failed: Connection timed out
[1739880711.730151] [ohm:50293:0]        ib_iface.c:1059 UCX  ERROR ibv_create_cq(cqe=256) failed: Connection timed out
[1739880711.749302] [ohm:50310:0]        ib_iface.c:1059 UCX  ERROR ibv_create_cq(cqe=256) failed: Connection timed out
[1739880711.749636] [ohm:50337:0]        ib_iface.c:1059 UCX  ERROR ibv_create_cq(cqe=256) failed: Connection timed out
[1739880711.752127] [ohm:50297:0]        ib_iface.c:1059 UCX  ERROR ibv_create_cq(cqe=256) failed: Connection timed out
[1739880711.792842] [ohm:50359:0]        ib_iface.c:1059 UCX  ERROR ibv_create_cq(cqe=256) failed: Connection timed out
[1739880711.797507] [ohm:50303:0]        ib_iface.c:1059 UCX  ERROR ibv_create_cq(cqe=256) failed: Connection timed out
[1739880711.798563] [ohm:50385:0]        ib_iface.c:1059 UCX  ERROR ibv_create_cq(cqe=256) failed: Connection timed out
[1739880711.810117] [ohm:50298:0]        ib_iface.c:1059 UCX  ERROR ibv_create_cq(cqe=256) failed: Connection timed out
[1739880711.821048] [ohm:50294:0]        ib_iface.c:1059 UCX  ERROR ibv_create_cq(cqe=256) failed: Connection timed out
[1739880711.826881] [ohm:50314:0]        ib_iface.c:1059 UCX  ERROR ibv_create_cq(cqe=256) failed: Connection timed out
[1739880711.830111] [ohm:50302:0]        ib_iface.c:1059 UCX  ERROR ibv_create_cq(cqe=256) failed: Connection timed out
[1739880711.843821] [ohm:50318:0]        ib_iface.c:1059 UCX  ERROR ibv_create_cq(cqe=256) failed: Connection timed out
[1739880711.844823] [ohm:50389:0]        ib_iface.c:1059 UCX  ERROR ibv_create_cq(cqe=256) failed: Connection timed out
[1739880711.845272] [ohm:50397:0]        ib_iface.c:1059 UCX  ERROR ibv_create_cq(cqe=256) failed: Connection timed out
[1739880711.869999] [ohm:50301:0]        ib_iface.c:1059 UCX  ERROR ibv_create_cq(cqe=256) failed: Connection timed out
[1739880711.870040] [ohm:50324:0]        ib_iface.c:1059 UCX  ERROR ibv_create_cq(cqe=256) failed: Connection timed out
[1739880711.871315] [ohm:50418:0]        ib_iface.c:1059 UCX  ERROR ibv_create_cq(cqe=256) failed: Connection timed out
[1739880711.871426] [ohm:50377:0]        ib_iface.c:1059 UCX  ERROR ibv_create_cq(cqe=256) failed: Connection timed out
[1739880711.878793] [ohm:50309:0]        ib_iface.c:1059 UCX  ERROR ibv_create_cq(cqe=256) failed: Connection timed out
[1739880711.886009] [ohm:50322:0]        ib_iface.c:1059 UCX  ERROR ibv_create_cq(cqe=256) failed: Connection timed out
[1739880711.899794] [ohm:50339:0]        ib_iface.c:1059 UCX  ERROR ibv_create_cq(cqe=256) failed: Connection timed out
[1739880711.901473] [ohm:50384:0]        ib_iface.c:1059 UCX  ERROR ibv_create_cq(cqe=256) failed: Connection timed out
[1739880711.913045] [ohm:50349:0]        ib_iface.c:1059 UCX  ERROR ibv_create_cq(cqe=256) failed: Connection timed out
[1739880711.920142] [ohm:50292:0]        ib_iface.c:1059 UCX  ERROR ibv_create_cq(cqe=256) failed: Connection timed out
[1739880711.928487] [ohm:50369:0]        ib_iface.c:1059 UCX  ERROR ibv_create_cq(cqe=256) failed: Connection timed out
[1739880711.929248] [ohm:50380:0]        ib_iface.c:1059 UCX  ERROR ibv_create_cq(cqe=256) failed: Connection timed out
[1739880711.935593] [ohm:50364:0]        ib_iface.c:1059 UCX  ERROR ibv_create_cq(cqe=256) failed: Connection timed out
[1739880711.936928] [ohm:50403:0]        ib_iface.c:1059 UCX  ERROR ibv_create_cq(cqe=256) failed: Connection timed out
[1739880711.941487] [ohm:50410:0]        ib_iface.c:1059 UCX  ERROR ibv_create_cq(cqe=256) failed: Connection timed out
[1739880711.941996] [ohm:50446:0]        ib_iface.c:1059 UCX  ERROR ibv_create_cq(cqe=256) failed: Connection timed out
[1739880711.942307] [ohm:50344:0]        ib_iface.c:1059 UCX  ERROR ibv_create_cq(cqe=256) failed: Connection timed out
[1739880711.951572] [ohm:50422:0]        ib_iface.c:1059 UCX  ERROR ibv_create_cq(cqe=256) failed: Connection timed out
[1739880711.971808] [ohm:50433:0]        ib_iface.c:1059 UCX  ERROR ibv_create_cq(cqe=256) failed: Connection timed out
[1739880711.975602] [ohm:50373:0]        ib_iface.c:1059 UCX  ERROR ibv_create_cq(cqe=256) failed: Connection timed out
[1739880711.979075] [ohm:50438:0]        ib_iface.c:1059 UCX  ERROR ibv_create_cq(cqe=256) failed: Connection timed out
[1739880711.980551] [ohm:50308:0]        ib_iface.c:1059 UCX  ERROR ibv_create_cq(cqe=256) failed: Connection timed out
[1739880711.983614] [ohm:50311:0]        ib_iface.c:1059 UCX  ERROR ibv_create_cq(cqe=256) failed: Connection timed out
[1739880711.985862] [ohm:50428:0]        ib_iface.c:1059 UCX  ERROR ibv_create_cq(cqe=256) failed: Connection timed out
[1739880711.990691] [ohm:50415:0]        ib_iface.c:1059 UCX  ERROR ibv_create_cq(cqe=256) failed: Connection timed out
[1739880711.991489] [ohm:50299:0]        ib_iface.c:1059 UCX  ERROR ibv_create_cq(cqe=256) failed: Connection timed out
[1739880711.997693] [ohm:50357:0]        ib_iface.c:1059 UCX  ERROR ibv_create_cq(cqe=256) failed: Connection timed out
[1739880712.000188] [ohm:50407:0]        ib_iface.c:1059 UCX  ERROR ibv_create_cq(cqe=256) failed: Connection timed out
[1739880712.007489] [ohm:50391:0]        ib_iface.c:1059 UCX  ERROR ibv_create_cq(cqe=256) failed: Connection timed out
[1739880712.009578] [ohm:50307:0]        ib_iface.c:1059 UCX  ERROR ibv_create_cq(cqe=256) failed: Connection timed out
[1739880712.010311] [ohm:50315:0]        ib_iface.c:1059 UCX  ERROR ibv_create_cq(cqe=256) failed: Connection timed out
[1739880712.012638] [ohm:50354:0]        ib_iface.c:1059 UCX  ERROR ibv_create_cq(cqe=256) failed: Connection timed out
[1739880712.012866] [ohm:50312:0]        ib_iface.c:1059 UCX  ERROR ibv_create_cq(cqe=256) failed: Connection timed out
[1739880712.014389] [ohm:50316:0]        ib_iface.c:1059 UCX  ERROR ibv_create_cq(cqe=256) failed: Connection timed out
[1739880712.015353] [ohm:50329:0]        ib_iface.c:1059 UCX  ERROR ibv_create_cq(cqe=256) failed: Connection timed out
[1739880712.019038] [ohm:50413:0]        ib_iface.c:1059 UCX  ERROR ibv_create_cq(cqe=256) failed: Connection timed out
[1739880712.024087] [ohm:50342:0]        ib_iface.c:1059 UCX  ERROR ibv_create_cq(cqe=256) failed: Connection timed out
[1739880712.026380] [ohm:50350:0]        ib_iface.c:1059 UCX  ERROR ibv_create_cq(cqe=256) failed: Connection timed out
[1739880712.027370] [ohm:50304:0]        ib_iface.c:1059 UCX  ERROR ibv_create_cq(cqe=256) failed: Connection timed out
[1739880712.029630] [ohm:50313:0]        ib_iface.c:1059 UCX  ERROR ibv_create_cq(cqe=256) failed: Connection timed out
[1739880712.030031] [ohm:50300:0]        ib_iface.c:1059 UCX  ERROR ibv_create_cq(cqe=256) failed: Connection timed out
[1739880712.030619] [ohm:50305:0]        ib_iface.c:1059 UCX  ERROR ibv_create_cq(cqe=256) failed: Connection timed out
[1739880712.031704] [ohm:50378:0]        ib_iface.c:1059 UCX  ERROR ibv_create_cq(cqe=256) failed: Connection timed out
[1739880712.031901] [ohm:50395:0]        ib_iface.c:1059 UCX  ERROR ibv_create_cq(cqe=256) failed: Connection timed out
[1739880712.033194] [ohm:50334:0]        ib_iface.c:1059 UCX  ERROR ibv_create_cq(cqe=256) failed: Connection timed out


           ************************************************************
           *        Program running with 64 parallel MPI-processes    *
           *              working on a common directory               *
           ************************************************************
-------------------------------------------------------------------------------
                                 ORCA GUESS
                   Start orbitals & Density for SCF / CASSCF
-------------------------------------------------------------------------------

------------
SCF SETTINGS
------------
Hamiltonian:
 Density Functional     Method          .... DFT(GTOs)
  Functional kind                       .... Exchange-Correlation
  Functional name                       .... wB97M-V exchange-correlation functional
  Functional family                     .... Hybrid MGGA
  Functional refs                              
    [ 0] N. Mardirossian and M. Head-Gordon.,  J. Chem. Phys. 144, 214110 (2016), doi: 10.1063/1.4952647
  Fraction of HF Exchange (short range) .... 0.1500
  Fraction of HF Exchange (long range)  .... 1.0000
  Range separation parameter mu         .... 0.3000
  Functional external parameters        .... 17
    Parameter  0 _cx00      =  8.500000e-01 : u^00 coefficient for exchange
    Parameter  1 _cx01      =  1.007000e+00 : u^01 coefficient for exchange
    Parameter  2 _cx10      =  2.590000e-01 : u^10 coefficient for exchange
    Parameter  3 _css00     =  4.430000e-01 : u^00 coefficient for same-spin correlation
    Parameter  4 _css04     = -1.437000e+00 : u^04 coefficient for same-spin correlation
    Parameter  5 _css10     = -4.535000e+00 : u^10 coefficient for same-spin correlation
    Parameter  6 _css20     = -3.390000e+00 : u^20 coefficient for same-spin correlation
    Parameter  7 _css43     =  4.278000e+00 : u^43 coefficient for same-spin correlation
    Parameter  8 _cos00     =  1.000000e+00 : u^00 coefficient for opposite-spin correlation
    Parameter  9 _cos10     =  1.358000e+00 : u^10 coefficient for opposite-spin correlation
    Parameter 10 _cos20     =  2.924000e+00 : u^20 coefficient for opposite-spin correlation
    Parameter 11 _cos21     = -8.812000e+00 : u^21 coefficient for opposite-spin correlation
    Parameter 12 _cos60     = -1.390000e+00 : u^60 coefficient for opposite-spin correlation
    Parameter 13 _cos61     =  9.142000e+00 : u^61 coefficient for opposite-spin correlation
    Parameter 14 _alpha     =  1.000000e+00 : fraction of HF exchange
    Parameter 15 _beta      = -8.500000e-01 : fraction of short-range exchange
    Parameter 16 _omega     =  3.000000e-01 : range-separation constant
 Long-range corrected/Screened/Range-Separated Hybrid DFT is turned on
   Amount of maximum screened exact exchange              ....  0.850000
   Range separation parameter mu (erf(mu*r12)/r12)        ....  0.300000
 RI-approximation to the Coulomb term is turned on
   Number of AuxJ basis functions       .... 1014
   RIJ-COSX (HFX calculated with COS-X)).... on


General Settings:
 Integral files         IntName         .... orca
 Hartree-Fock type      HFTyp           .... UHF
 Total Charge           Charge          ....    0
 Multiplicity           Mult            ....    3
 Number of Electrons    NEL             ....  132
 Basis Dimension        Dim             ....  882
 Nuclear Repulsion      ENuc            ....   1449.4552107253 Eh

Convergence Acceleration:
 AO-DIIS                CNVDIIS         .... on
   Start iteration      DIISMaxIt       ....    12
   Startup error        DIISStart       ....  0.200000
   # of expansion vecs  DIISMaxEq       ....     5
   Bias factor          DIISBfac        ....   1.050
   Max. coefficient     DIISMaxC        ....  10.000
 MO-DIIS                CNVKDIIS        .... off
 Trust-Rad. Augm. Hess. CNVTRAH         .... auto
   Auto Start mean grad. ratio tolernc. ....  1.125000
   Auto Start start iteration           ....    50
   Auto Start num. interpolation iter.  ....    10
   Max. Number of Micro iterations      ....    24
   Max. Number of Macro iterations      .... Maxiter - #DIIS iter
   Number of Davidson start vectors     ....     2
   Converg. threshold    (grad. norm)   ....   1.000e-05
   Grad. Scal. Fac. for Micro threshold ....   0.100
   Minimum threshold for Micro iter.    ....   1.000e-02
   NR start threshold (gradient norm)   ....   1.000e-04
   Initial trust radius                 ....   0.400
   Minimum AH scaling param. (alpha)    ....   1.000
   Maximum AH scaling param. (alpha)    .... 1000.000
   Quad. conv. algorithm                .... NR
   White noise on init. David. guess    .... on
   Maximum white noise                  ....   0.010
   Pseudo random numbers                .... off
   Inactive MOs                         .... canonical
   Orbital update algorithm             .... Taylor
   Preconditioner                       .... Diag
   Full preconditioner red. dimension   ....   250
 SOSCF                  CNVSOSCF        .... on
   Start iteration      SOSCFMaxIt      ....   150
   Startup grad/error   SOSCFStart      ....  0.003300
   Hessian update       SOSCFHessUp     .... L-BFGS
 Level Shifting         CNVShift        .... on
   Level shift para.    LevelShift      ....    0.2500
   Turn off err/grad.   ShiftErr        ....    0.0010
 Zerner damping         CNVZerner       .... off
 Static damping         CNVDamp         .... on
   Fraction old density DampFac         ....    0.7000
   Max. Damping (<1)    DampMax         ....    0.9800
   Min. Damping (>=0)   DampMin         ....    0.0000
   Turn off err/grad.   DampErr         ....    0.1000

SCF Procedure:
 Maximum # iterations   MaxIter         ....   125
 SCF integral mode      SCFMode         .... Direct
   Integral package                     .... SHARK and LIBINT hybrid scheme
 Reset frequency        DirectResetFreq ....    20
 Integral Threshold     Thresh          ....  1.000e-12 Eh
 Primitive CutOff       TCut            ....  1.000e-13 Eh

Convergence Tolerance:
 Convergence Check Mode ConvCheckMode   .... Total+1el-Energy
 Convergence forced     ConvForced      .... 1
 Energy Change          TolE            ....  1.000e-08 Eh
 1-El. energy change                    ....  1.000e-05 Eh
 Orbital Gradient       TolG            ....  1.000e-05
 Orbital Rotation angle TolX            ....  1.000e-05
 DIIS Error             TolErr          ....  5.000e-07

------------------------------
INITIAL GUESS: MODEL POTENTIAL
------------------------------
Loading Hartree-Fock densities                     ... done
Calculating cut-offs                               ... done
Initializing the effective Hamiltonian             ... done
Setting up the integral package (SHARK)            ... done
Starting the Coulomb interaction                   ... done (   0.1 sec)
Making the grid                                    ... done (   0.3 sec)
Mapping shells                                     ... done
Starting the XC term evaluation                    ... done (   0.1 sec)
  promolecular density results
     # of electrons  =    131.998645092
     EX              =   -113.585607697
     EC              =     -4.475729982
     EX+EC           =   -118.061337679
Transforming the Hamiltonian                       ... done (   0.1 sec)
Diagonalizing the Hamiltonian                      ... done (   0.1 sec)
Back transforming the eigenvectors                 ... done (   0.1 sec)
Now organizing SCF variables                       ... done
                      ------------------
                      INITIAL GUESS DONE (   1.1 sec)
                      ------------------
             **** ENERGY FILE WAS UPDATED (orca.en.tmp) ****
Finished Guess after   3.5 sec
Maximum memory used throughout the entire GUESS-calculation: 72.5 MB
[1739880715.909333] [ohm:50656:0]        ib_iface.c:1059 UCX  ERROR ibv_create_cq(cqe=256) failed: Connection timed out
[1739880715.910984] [ohm:50655:0]        ib_iface.c:1059 UCX  ERROR ibv_create_cq(cqe=256) failed: Connection timed out
[1739880715.954583] [ohm:50657:0]        ib_iface.c:1059 UCX  ERROR ibv_create_cq(cqe=256) failed: Connection timed out
[1739880715.987549] [ohm:50658:0]        ib_iface.c:1059 UCX  ERROR ibv_create_cq(cqe=256) failed: Connection timed out
[1739880715.999885] [ohm:50659:0]        ib_iface.c:1059 UCX  ERROR ibv_create_cq(cqe=256) failed: Connection timed out
[1739880716.013265] [ohm:50665:0]        ib_iface.c:1059 UCX  ERROR ibv_create_cq(cqe=256) failed: Connection timed out
[1739880716.022789] [ohm:50664:0]        ib_iface.c:1059 UCX  ERROR ibv_create_cq(cqe=256) failed: Connection timed out
[1739880716.036148] [ohm:50702:0]        ib_iface.c:1059 UCX  ERROR ibv_create_cq(cqe=256) failed: Connection timed out
[1739880716.037036] [ohm:50703:0]        ib_iface.c:1059 UCX  ERROR ibv_create_cq(cqe=256) failed: Connection timed out
[1739880716.041696] [ohm:50661:0]        ib_iface.c:1059 UCX  ERROR ibv_create_cq(cqe=256) failed: Connection timed out
[1739880716.059307] [ohm:50679:0]        ib_iface.c:1059 UCX  ERROR ibv_create_cq(cqe=256) failed: Connection timed out
[1739880716.068817] [ohm:50681:0]        ib_iface.c:1059 UCX  ERROR ibv_create_cq(cqe=256) failed: Connection timed out
[1739880716.077906] [ohm:50663:0]        ib_iface.c:1059 UCX  ERROR ibv_create_cq(cqe=256) failed: Connection timed out
[1739880716.083287] [ohm:50678:0]        ib_iface.c:1059 UCX  ERROR ibv_create_cq(cqe=256) failed: Connection timed out
[1739880716.089223] [ohm:50654:0]        ib_iface.c:1059 UCX  ERROR ibv_create_cq(cqe=256) failed: Connection timed out
[1739880716.091449] [ohm:50716:0]        ib_iface.c:1059 UCX  ERROR ibv_create_cq(cqe=256) failed: Connection timed out
[1739880716.093158] [ohm:50785:0]        ib_iface.c:1059 UCX  ERROR ibv_create_cq(cqe=256) failed: Connection timed out
[1739880716.093482] [ohm:50694:0]        ib_iface.c:1059 UCX  ERROR ibv_create_cq(cqe=256) failed: Connection timed out
[1739880716.096874] [ohm:50711:0]        ib_iface.c:1059 UCX  ERROR ibv_create_cq(cqe=256) failed: Connection timed out
[1739880716.169239] [ohm:50793:0]        ib_iface.c:1059 UCX  ERROR ibv_create_cq(cqe=256) failed: Connection timed out
[1739880716.169598] [ohm:50713:0]        ib_iface.c:1059 UCX  ERROR ibv_create_cq(cqe=256) failed: Connection timed out
[1739880716.176943] [ohm:50736:0]        ib_iface.c:1059 UCX  ERROR ibv_create_cq(cqe=256) failed: Connection timed out
[1739880716.181024] [ohm:50689:0]        ib_iface.c:1059 UCX  ERROR ibv_create_cq(cqe=256) failed: Connection timed out
[1739880716.192400] [ohm:50729:0]        ib_iface.c:1059 UCX  ERROR ibv_create_cq(cqe=256) failed: Connection timed out
[1739880716.192977] [ohm:50660:0]        ib_iface.c:1059 UCX  ERROR ibv_create_cq(cqe=256) failed: Connection timed out
[1739880716.195143] [ohm:50712:0]        ib_iface.c:1059 UCX  ERROR ibv_create_cq(cqe=256) failed: Connection timed out
[1739880716.203189] [ohm:50710:0]        ib_iface.c:1059 UCX  ERROR ibv_create_cq(cqe=256) failed: Connection timed out
[1739880716.227199] [ohm:50707:0]        ib_iface.c:1059 UCX  ERROR ibv_create_cq(cqe=256) failed: Connection timed out
[1739880716.234013] [ohm:50755:0]        ib_iface.c:1059 UCX  ERROR ibv_create_cq(cqe=256) failed: Connection timed out
[1739880716.234612] [ohm:50705:0]        ib_iface.c:1059 UCX  ERROR ibv_create_cq(cqe=256) failed: Connection timed out
[1739880716.239292] [ohm:50687:0]        ib_iface.c:1059 UCX  ERROR ibv_create_cq(cqe=256) failed: Connection timed out
[1739880716.239934] [ohm:50706:0]        ib_iface.c:1059 UCX  ERROR ibv_create_cq(cqe=256) failed: Connection timed out
[1739880716.249329] [ohm:50748:0]        ib_iface.c:1059 UCX  ERROR ibv_create_cq(cqe=256) failed: Connection timed out
[1739880716.249862] [ohm:50709:0]        ib_iface.c:1059 UCX  ERROR ibv_create_cq(cqe=256) failed: Connection timed out
[1739880716.250148] [ohm:50765:0]        ib_iface.c:1059 UCX  ERROR ibv_create_cq(cqe=256) failed: Connection timed out
[1739880716.253463] [ohm:50797:0]        ib_iface.c:1059 UCX  ERROR ibv_create_cq(cqe=256) failed: Connection timed out
[1739880716.259902] [ohm:50726:0]        ib_iface.c:1059 UCX  ERROR ibv_create_cq(cqe=256) failed: Connection timed out
[1739880716.261426] [ohm:50772:0]        ib_iface.c:1059 UCX  ERROR ibv_create_cq(cqe=256) failed: Connection timed out
[1739880716.266710] [ohm:50751:0]        ib_iface.c:1059 UCX  ERROR ibv_create_cq(cqe=256) failed: Connection timed out
[1739880716.270041] [ohm:50801:0]        ib_iface.c:1059 UCX  ERROR ibv_create_cq(cqe=256) failed: Connection timed out
[1739880716.270066] [ohm:50662:0]        ib_iface.c:1059 UCX  ERROR ibv_create_cq(cqe=256) failed: Connection timed out
[1739880716.281001] [ohm:50768:0]        ib_iface.c:1059 UCX  ERROR ibv_create_cq(cqe=256) failed: Connection timed out
[1739880716.286522] [ohm:50696:0]        ib_iface.c:1059 UCX  ERROR ibv_create_cq(cqe=256) failed: Connection timed out
[1739880716.293483] [ohm:50803:0]        ib_iface.c:1059 UCX  ERROR ibv_create_cq(cqe=256) failed: Connection timed out
[1739880716.297095] [ohm:50784:0]        ib_iface.c:1059 UCX  ERROR ibv_create_cq(cqe=256) failed: Connection timed out
[1739880716.297906] [ohm:50675:0]        ib_iface.c:1059 UCX  ERROR ibv_create_cq(cqe=256) failed: Connection timed out
[1739880716.302936] [ohm:50731:0]        ib_iface.c:1059 UCX  ERROR ibv_create_cq(cqe=256) failed: Connection timed out
[1739880716.303206] [ohm:50715:0]        ib_iface.c:1059 UCX  ERROR ibv_create_cq(cqe=256) failed: Connection timed out
[1739880716.307594] [ohm:50666:0]        ib_iface.c:1059 UCX  ERROR ibv_create_cq(cqe=256) failed: Connection timed out
[1739880716.311091] [ohm:50743:0]        ib_iface.c:1059 UCX  ERROR ibv_create_cq(cqe=256) failed: Connection timed out
[1739880716.311210] [ohm:50708:0]        ib_iface.c:1059 UCX  ERROR ibv_create_cq(cqe=256) failed: Connection timed out
[1739880716.313578] [ohm:50780:0]        ib_iface.c:1059 UCX  ERROR ibv_create_cq(cqe=256) failed: Connection timed out
[1739880716.318098] [ohm:50762:0]        ib_iface.c:1059 UCX  ERROR ibv_create_cq(cqe=256) failed: Connection timed out
[1739880716.320098] [ohm:50719:0]        ib_iface.c:1059 UCX  ERROR ibv_create_cq(cqe=256) failed: Connection timed out
[1739880716.324212] [ohm:50758:0]        ib_iface.c:1059 UCX  ERROR ibv_create_cq(cqe=256) failed: Connection timed out
[1739880716.325441] [ohm:50699:0]        ib_iface.c:1059 UCX  ERROR ibv_create_cq(cqe=256) failed: Connection timed out
[1739880716.325897] [ohm:50717:0]        ib_iface.c:1059 UCX  ERROR ibv_create_cq(cqe=256) failed: Connection timed out
[1739880716.326484] [ohm:50774:0]        ib_iface.c:1059 UCX  ERROR ibv_create_cq(cqe=256) failed: Connection timed out
[1739880716.326921] [ohm:50692:0]        ib_iface.c:1059 UCX  ERROR ibv_create_cq(cqe=256) failed: Connection timed out
[1739880716.327466] [ohm:50778:0]        ib_iface.c:1059 UCX  ERROR ibv_create_cq(cqe=256) failed: Connection timed out
[1739880716.328756] [ohm:50792:0]        ib_iface.c:1059 UCX  ERROR ibv_create_cq(cqe=256) failed: Connection timed out
[1739880716.329660] [ohm:50740:0]        ib_iface.c:1059 UCX  ERROR ibv_create_cq(cqe=256) failed: Connection timed out
[1739880716.329951] [ohm:50714:0]        ib_iface.c:1059 UCX  ERROR ibv_create_cq(cqe=256) failed: Connection timed out
[1739880716.331073] [ohm:50721:0]        ib_iface.c:1059 UCX  ERROR ibv_create_cq(cqe=256) failed: Connection timed out


           ************************************************************
           *        Program running with 64 parallel MPI-processes    *
           *              working on a common directory               *
           ************************************************************

-------------------------------------------------------------------------------------------
                                      ORCA LEAN-SCF
                              memory conserving SCF solver
-------------------------------------------------------------------------------------------

----------------------------------------D-I-I-S--------------------------------------------
Iteration    Energy (Eh)           Delta-E    RMSDP     MaxDP     DIISErr   Damp  Time(sec)
-------------------------------------------------------------------------------------------
               ***  Starting incremental Fock matrix formation  ***
    1    -908.1150458450556471     0.00e+00  1.28e-03  2.04e-01  1.47e-01  0.700   7.8
    2    -908.3814914976242108    -2.66e-01  1.06e-03  1.40e-01  7.04e-02  0.700   6.6
                               ***Turning on AO-DIIS***
    3    -908.5019648491011139    -1.20e-01  7.62e-04  8.91e-02  2.79e-02  0.700   5.8
    4    -908.5759288053959608    -7.40e-02  1.88e-03  1.94e-01  1.94e-02  0.000   5.8
    5    -908.7427377730614353    -1.67e-01  2.88e-04  3.74e-02  5.10e-03  0.000   6.0
                              *** Initializing SOSCF ***
---------------------------------------S-O-S-C-F--------------------------------------
Iteration    Energy (Eh)           Delta-E    RMSDP     MaxDP     MaxGrad    Time(sec)
--------------------------------------------------------------------------------------
    6    -908.7446857254249153    -1.95e-03  2.06e-04  3.32e-02  2.75e-03     6.7
               *** Restarting incremental Fock matrix formation ***
    7    -908.7457763158731723    -1.09e-03  3.43e-04  3.90e-02  8.64e-03     7.5
    8    -908.7467850040652593    -1.01e-03  4.65e-04  5.68e-02  4.94e-03     6.7
    9    -908.7472242684752928    -4.39e-04  1.40e-04  1.84e-02  1.76e-03     6.8
   10    -908.7473260559909249    -1.02e-04  6.76e-05  8.65e-03  8.39e-04     6.6
   11    -908.7473656519855467    -3.96e-05  1.75e-05  2.54e-03  2.52e-04     6.3
   12    -908.7473693961437675    -3.74e-06  1.66e-05  2.77e-03  2.51e-04     6.3
   13    -908.7473718256528628    -2.43e-06  1.91e-05  2.66e-03  1.05e-04     6.1
   14    -908.7473724922460860    -6.67e-07  3.25e-06  4.33e-04  3.10e-05     6.1
   15    -908.7473726080634151    -1.16e-07  3.13e-06  4.37e-04  2.12e-05     5.9
   16    -908.7473726487905878    -4.07e-08  1.91e-06  2.37e-04  1.63e-05     5.7
   17    -908.7473726954899576    -4.67e-08  1.24e-06  1.75e-04  1.46e-05     5.7
   18    -908.7473726726234418     2.29e-08  1.83e-06  3.81e-04  4.83e-06     5.5
   19    -908.7473727449473699    -7.23e-08  9.69e-07  1.70e-04  2.93e-06     5.5
   20    -908.7473726953066944     4.96e-08  1.13e-06  1.83e-04  1.50e-06     5.3
                  *** Gradient check signals convergence ***

               *****************************************************
               *                     SUCCESS                       *
               *           SCF CONVERGED AFTER  20 CYCLES          *
               *****************************************************

Recomputing exchange energy using gridx3       ... done (    7.791 sec)
Old exchange energy                            :    -35.042031357 Eh
New exchange energy                            :    -35.042027682 Eh
Exchange energy change after final integration :      0.000003674 Eh
Total energy after final integration           :   -908.747369021 Eh
             **** ENERGY FILE WAS UPDATED (orca.en.tmp) ****

----------------
TOTAL SCF ENERGY
----------------

Total Energy       :       -908.74736902107065 Eh          -24728.27307 eV

Components:
Nuclear Repulsion  :       1449.45521072525980 Eh           39441.68146 eV
Electronic Energy  :      -2358.20258342056650 Eh          -64169.95463 eV
One Electron Energy:      -4116.47409673831680 Eh         -112014.95490 eV
Two Electron Energy:       1758.27151331775030 Eh           47845.00027 eV

Virial components:
Potential Energy   :      -1814.97260991515441 Eh          -49387.91555 eV
Kinetic Energy     :        906.22524089408364 Eh           24659.64248 eV
Virial Ratio       :          2.00278311396899

DFT components:
N(Alpha)           :       67.000078800699 electrons
N(Beta)            :       65.000078379823 electrons
N(Total)           :      132.000157180521 electrons
E(XC)              :      -86.315845987850 Eh       

---------------
SCF CONVERGENCE
---------------

  Last Energy change         ...   -4.9641e-08  Tolerance :   1.0000e-08
  Last MAX-Density change    ...    1.8271e-04  Tolerance :   1.0000e-07
  Last RMS-Density change    ...    1.1286e-06  Tolerance :   5.0000e-09
  Last DIIS Error            ...    2.7477e-03  Tolerance :   5.0000e-07
  Last Orbital Gradient      ...    1.5030e-06  Tolerance :   1.0000e-05
  Last Orbital Rotation      ...    9.9120e-06  Tolerance :   1.0000e-05


----------------------
UHF SPIN CONTAMINATION
----------------------

Warning: in a DFT calculation there is little theoretical justification to 
         calculate <S**2> as in Hartree-Fock theory. We will do it anyways
         but you should keep in mind that the values have only limited relevance

Expectation value of <S**2>     :     2.010557
Ideal value S*(S+1) for S=1.0   :     2.000000
Deviation                       :     0.010557

----------------
ORBITAL ENERGIES
----------------
                 SPIN UP ORBITALS
  NO   OCC          E(Eh)            E(eV) 
   0   1.0000     -19.329452      -525.9811 
   1   1.0000     -19.326857      -525.9105 
   2   1.0000     -19.321104      -525.7540 
   3   1.0000     -19.320714      -525.7434 
   4   1.0000     -14.589324      -396.9957 
   5   1.0000     -14.583753      -396.8441 
   6   1.0000     -14.568433      -396.4272 
   7   1.0000     -14.551430      -395.9646 
   8   1.0000     -10.514431      -286.1122 
   9   1.0000     -10.507480      -285.9231 
  10   1.0000     -10.475562      -285.0545 
  11   1.0000     -10.458171      -284.5813 
  12   1.0000     -10.431202      -283.8474 
  13   1.0000     -10.411242      -283.3043 
  14   1.0000     -10.397091      -282.9192 
  15   1.0000     -10.378865      -282.4233 
  16   1.0000     -10.371412      -282.2205 
  17   1.0000     -10.347149      -281.5602 
  18   1.0000      -1.227242       -33.3949 
  19   1.0000      -1.222107       -33.2552 
  20   1.0000      -1.194470       -32.5032 
  21   1.0000      -1.188623       -32.3441 
  22   1.0000      -1.123495       -30.5719 
  23   1.0000      -1.121281       -30.5116 
  24   1.0000      -1.068238       -29.0682 
  25   1.0000      -1.059184       -28.8219 
  26   1.0000      -0.973280       -26.4843 
  27   1.0000      -0.953547       -25.9473 
  28   1.0000      -0.859293       -23.3826 
  29   1.0000      -0.844054       -22.9679 
  30   1.0000      -0.813353       -22.1324 
  31   1.0000      -0.808919       -22.0118 
  32   1.0000      -0.793375       -21.5888 
  33   1.0000      -0.786662       -21.4061 
  34   1.0000      -0.697927       -18.9915 
  35   1.0000      -0.694202       -18.8902 
  36   1.0000      -0.693824       -18.8799 
  37   1.0000      -0.691594       -18.8192 
  38   1.0000      -0.643602       -17.5133 
  39   1.0000      -0.638589       -17.3769 
  40   1.0000      -0.627735       -17.0815 
  41   1.0000      -0.598565       -16.2878 
  42   1.0000      -0.596399       -16.2288 
  43   1.0000      -0.593159       -16.1407 
  44   1.0000      -0.572515       -15.5789 
  45   1.0000      -0.568238       -15.4625 
  46   1.0000      -0.567217       -15.4348 
  47   1.0000      -0.555439       -15.1143 
  48   1.0000      -0.551050       -14.9948 
  49   1.0000      -0.548052       -14.9132 
  50   1.0000      -0.534974       -14.5574 
  51   1.0000      -0.521335       -14.1862 
  52   1.0000      -0.515705       -14.0331 
  53   1.0000      -0.514311       -13.9951 
  54   1.0000      -0.513301       -13.9676 
  55   1.0000      -0.494726       -13.4622 
  56   1.0000      -0.489667       -13.3245 
  57   1.0000      -0.476241       -12.9592 
  58   1.0000      -0.420043       -11.4300 
  59   1.0000      -0.418220       -11.3803 
  60   1.0000      -0.404404       -11.0044 
  61   1.0000      -0.402728       -10.9588 
  62   1.0000      -0.388223       -10.5641 
  63   1.0000      -0.385844       -10.4993 
  64   1.0000      -0.382381       -10.4051 
  65   1.0000      -0.346298        -9.4232 
  66   1.0000      -0.216489        -5.8910 
  67   0.0000       0.011844         0.3223 
  68   0.0000       0.021655         0.5893 
  69   0.0000       0.033435         0.9098 
  70   0.0000       0.039548         1.0762 
  71   0.0000       0.041906         1.1403 
  72   0.0000       0.058510         1.5921 
  73   0.0000       0.058906         1.6029 
  74   0.0000       0.063894         1.7386 
  75   0.0000       0.067538         1.8378 
  76   0.0000       0.070027         1.9055 
  77   0.0000       0.073723         2.0061 

                 SPIN DOWN ORBITALS
  NO   OCC          E(Eh)            E(eV) 
   0   1.0000     -19.327476      -525.9273 
   1   1.0000     -19.326818      -525.9095 
   2   1.0000     -19.320646      -525.7415 
   3   1.0000     -19.314567      -525.5761 
   4   1.0000     -14.584339      -396.8600 
   5   1.0000     -14.583579      -396.8394 
   6   1.0000     -14.568448      -396.4276 
   7   1.0000     -14.550529      -395.9400 
   8   1.0000     -10.514436      -286.1123 
   9   1.0000     -10.507839      -285.9328 
  10   1.0000     -10.475569      -285.0547 
  11   1.0000     -10.457936      -284.5749 
  12   1.0000     -10.431193      -283.8472 
  13   1.0000     -10.401723      -283.0453 
  14   1.0000     -10.386649      -282.6351 
  15   1.0000     -10.378802      -282.4216 
  16   1.0000     -10.371876      -282.2331 
  17   1.0000     -10.347125      -281.5596 
  18   1.0000      -1.226596       -33.3774 
  19   1.0000      -1.218180       -33.1484 
  20   1.0000      -1.194339       -32.4996 
  21   1.0000      -1.179029       -32.0830 
  22   1.0000      -1.123291       -30.5663 
  23   1.0000      -1.110580       -30.2204 
  24   1.0000      -1.068154       -29.0660 
  25   1.0000      -1.053514       -28.6676 
  26   1.0000      -0.953764       -25.9532 
  27   1.0000      -0.950198       -25.8562 
  28   1.0000      -0.847890       -23.0723 
  29   1.0000      -0.843690       -22.9580 
  30   1.0000      -0.808964       -22.0130 
  31   1.0000      -0.800120       -21.7724 
  32   1.0000      -0.793309       -21.5870 
  33   1.0000      -0.780676       -21.2433 
  34   1.0000      -0.693735       -18.8775 
  35   1.0000      -0.691869       -18.8267 
  36   1.0000      -0.688612       -18.7381 
  37   1.0000      -0.683446       -18.5975 
  38   1.0000      -0.641288       -17.4503 
  39   1.0000      -0.630408       -17.1543 
  40   1.0000      -0.621777       -16.9194 
  41   1.0000      -0.596303       -16.2262 
  42   1.0000      -0.587951       -15.9990 
  43   1.0000      -0.584425       -15.9030 
  44   1.0000      -0.567278       -15.4364 
  45   1.0000      -0.562158       -15.2971 
  46   1.0000      -0.554194       -15.0804 
  47   1.0000      -0.548227       -14.9180 
  48   1.0000      -0.546826       -14.8799 
  49   1.0000      -0.545081       -14.8324 
  50   1.0000      -0.527102       -14.3432 
  51   1.0000      -0.514859       -14.0100 
  52   1.0000      -0.513708       -13.9787 
  53   1.0000      -0.507578       -13.8119 
  54   1.0000      -0.500284       -13.6134 
  55   1.0000      -0.493951       -13.4411 
  56   1.0000      -0.476591       -12.9687 
  57   1.0000      -0.442401       -12.0383 
  58   1.0000      -0.419091       -11.4040 
  59   1.0000      -0.413771       -11.2593 
  60   1.0000      -0.402606       -10.9555 
  61   1.0000      -0.385209       -10.4821 
  62   1.0000      -0.379980       -10.3398 
  63   1.0000      -0.378626       -10.3029 
  64   1.0000      -0.345142        -9.3918 
  65   0.0000      -0.102576        -2.7912 
  66   0.0000       0.010902         0.2967 
  67   0.0000       0.022055         0.6001 
  68   0.0000       0.031721         0.8632 
  69   0.0000       0.038082         1.0363 
  70   0.0000       0.041622         1.1326 
  71   0.0000       0.057030         1.5519 
  72   0.0000       0.058671         1.5965 
  73   0.0000       0.059016         1.6059 
  74   0.0000       0.065836         1.7915 
  75   0.0000       0.069759         1.8982 
*Only the first 10 virtual orbitals were printed.

                    ********************************
                    * MULLIKEN POPULATION ANALYSIS *
                    ********************************

--------------------------------------------
MULLIKEN ATOMIC CHARGES AND SPIN POPULATIONS
--------------------------------------------
   0 O :   -0.689818    0.241858
   1 O :   -0.658918    0.002507
   2 O :   -0.627840    0.073023
   3 O :   -0.662145    0.002107
   4 N :    0.021939    0.207085
   5 N :    0.047959    0.016141
   6 N :    0.004064    0.043694
   7 N :    0.055241    0.001735
   8 C :    0.832909    0.195250
   9 C :    0.835815   -0.019803
  10 C :   -0.279040    0.997689
  11 C :   -0.221097    0.023824
  12 C :   -1.301478    0.007241
  13 C :   -1.377990   -0.002583
  14 C :    0.489138    0.199806
  15 C :    0.479072    0.003691
  16 C :    0.348606   -0.035930
  17 C :    0.426469   -0.010286
  18 H :    0.127666    0.019138
  19 H :    0.156227    0.003737
  20 H :    0.252483    0.021370
  21 H :    0.329641    0.006072
  22 H :    0.338010    0.018907
  23 H :    0.326383    0.000240
  24 H :    0.342571    0.000136
  25 H :    0.234026   -0.001339
  26 H :    0.056195   -0.017786
  27 H :    0.009054    0.001288
  28 H :    0.067503   -0.002473
  29 H :    0.037356    0.003662
Sum of atomic charges         :    0.0000000
Sum of atomic spin populations:    2.0000000

-----------------------------------------------------
MULLIKEN REDUCED ORBITAL CHARGES AND SPIN POPULATIONS
-----------------------------------------------------
CHARGE
  0 O s       :     4.088421  s :     4.088421
      pz      :     1.789613  p :     4.573096
      px      :     1.396015
      py      :     1.387468
      dz2     :     0.002822  d :     0.026418
      dxz     :    -0.000315
      dyz     :     0.004665
      dx2y2   :     0.012620
      dxy     :     0.006626
      f0      :     0.000200  f :     0.001884
      f+1     :     0.000103
      f-1     :     0.000302
      f+2     :     0.000217
      f-2     :     0.000268
      f+3     :     0.000323
      f-3     :     0.000471

[...]
[1739881007.613080] [ohm:53084:0]        ib_iface.c:1059 UCX  ERROR ibv_create_cq(cqe=256) failed: Connection timed out
[1739881007.615816] [ohm:53164:0]        ib_iface.c:1059 UCX  ERROR ibv_create_cq(cqe=256) failed: Connection timed out
[1739881007.616445] [ohm:53199:0]        ib_iface.c:1059 UCX  ERROR ibv_create_cq(cqe=256) failed: Connection timed out
[1739881007.617064] [ohm:53111:0]        ib_iface.c:1059 UCX  ERROR ibv_create_cq(cqe=256) failed: Connection timed out
[1739881007.617223] [ohm:53156:0]        ib_iface.c:1059 UCX  ERROR ibv_create_cq(cqe=256) failed: Connection timed out
[1739881007.619920] [ohm:53098:0]        ib_iface.c:1059 UCX  ERROR ibv_create_cq(cqe=256) failed: Connection timed out
[1739881007.620019] [ohm:53167:0]        ib_iface.c:1059 UCX  ERROR ibv_create_cq(cqe=256) failed: Connection timed out
[1739881007.623753] [ohm:53205:0]        ib_iface.c:1059 UCX  ERROR ibv_create_cq(cqe=256) failed: Connection timed out
[1739881007.623927] [ohm:53105:0]        ib_iface.c:1059 UCX  ERROR ibv_create_cq(cqe=256) failed: Connection timed out
[1739881007.624424] [ohm:53133:0]        ib_iface.c:1059 UCX  ERROR ibv_create_cq(cqe=256) failed: Connection timed out
[1739881007.625601] [ohm:53151:0]        ib_iface.c:1059 UCX  ERROR ibv_create_cq(cqe=256) failed: Connection timed out


           ************************************************************
           *        Program running with 64 parallel MPI-processes    *
           *              working on a common directory               *
           ************************************************************

------------------------------------------------------------------------------
                              ORCA PROPERTY CALCULATIONS
------------------------------------------------------------------------------

GBWName                                 ... orca.gbw
Number of atoms                         ...     30
Number of basis functions               ...    882
Max core memory                         ...   1024 MB

Electric properties:
Dipole moment                           ... YES
Quadrupole moment                       ...  NO
Static polarizability (Dipole/Dipole)   ...  NO
Static polarizability (Dipole/Quad.)    ...  NO
Static polarizability (Quad./Quad.)     ...  NO
Static polarizability (Velocity)        ...  NO

Atomic electric properties:
Dipole moment                           ...  NO
Quadrupole moment                       ...  NO
Static polarizability                   ...  NO

Choice of electric origin               ... Center of mass
Position of electric origin             ...    -0.018484     0.047039     0.099713

General magnetic properties:
Magnetizability                         ...  NO

EPR properties:
g-Tensor (aka g-matrix)                 ...  NO
Zero-Field splitting spin-orbit         ...  NO
Zero-field splitting spin-spin          ...  NO
Hyperfine couplings                     ...  NO (   0 nuclei)
Quadrupole couplings                    ...  NO (   0 nuclei)
Contact density                         ...  NO (   0 nuclei)

NMR properties:
Chemical shifts                         ...  NO (   0 nuclei)
Spin-rotation constants                 ...  NO (   0 nuclei)
Spin-spin couplings                     ...  NO (   0 nuclei,    0 pairs)

Choice of magnetic origin               ... GIAO
Position of magnetic origin             ...     0.000000     0.000000     0.000000

Properties with geometric perturbations:
SCF Hessian                             ...  NO
IR spectrum                             ...  NO
VCD spectrum                            ...  NO
X-ray spectroscopy properties:
SCF XES/XAS/RIXS spectra                ...  NO


-------------
DIPOLE MOMENT
-------------

Method             : SCF
Type of density    : Electron Density
Multiplicity       :   3
Irrep              :   0
Energy             :  -908.7473690210706536 Eh
Relativity type    : 
Basis              : AO
                                X                 Y                 Z
Electronic contribution:     -2.844729040      -9.450384187      -5.601303112
Nuclear contribution   :      2.549743108      10.329977087       8.110538322
                        -----------------------------------------
Total Dipole Moment    :     -0.294985932       0.879592901       2.509235210
                        -----------------------------------------
Magnitude (a.u.)       :      2.675249841
Magnitude (Debye)      :      6.799944695



--------------------
Rotational spectrum 
--------------------
 
Rotational constants in cm-1:             0.017015             0.015613             0.014034 
Rotational constants in MHz :           510.110869           468.065423           420.724467 

Dipole components along the rotational axes: 
x,y,z [a.u.] :     0.736040     0.299801     2.554472 
x,y,z [Debye]:     1.870865     0.762032     6.492952 

 

-------------
DIPOLE MOMENT
-------------

Method             : TDA/CIS
Type of density    : Electron Density
Level              : Relaxed density
State              :   1
Multiplicity       :   3
Irrep              :   0
Energy             :     0.0000000000000000 Eh
Relativity type    : 
Basis              : AO
                                X                 Y                 Z
Electronic contribution:     -2.983909418      -9.758339144      -5.573717094
Nuclear contribution   :      2.549743108      10.329977087       8.110538322
                        -----------------------------------------
Total Dipole Moment    :     -0.434166310       0.571637943       2.536821228
                        -----------------------------------------
Magnitude (a.u.)       :      2.636424144
Magnitude (Debye)      :      6.701257617



--------------------
Rotational spectrum 
--------------------
 
Rotational constants in cm-1:             0.017015             0.015613             0.014034 
Rotational constants in MHz :           510.110869           468.065423           420.724467 

Dipole components along the rotational axes: 
x,y,z [a.u.] :     0.542439     0.022601     2.579919 
x,y,z [Debye]:     1.378771     0.057447     6.557632 

 

Dipole moment calculation done in   0.2 sec 

Maximum memory used throughout the entire PROP-calculation: 81.7 MB
[1739881010.137327] [ohm:53432:0]        ib_iface.c:1059 UCX  ERROR ibv_create_cq(cqe=256) failed: Connection timed out
[1739881010.146617] [ohm:53431:0]        ib_iface.c:1059 UCX  ERROR ibv_create_cq(cqe=256) failed: Connection timed out
[1739881010.157174] [ohm:53433:0]        ib_iface.c:1059 UCX  ERROR ibv_create_cq(cqe=256) failed: Connection timed out
[1739881010.162111] [ohm:53443:0]        ib_iface.c:1059 UCX  ERROR ibv_create_cq(cqe=256) failed: Connection timed out
[1739881010.197681] [ohm:53438:0]        ib_iface.c:1059 UCX  ERROR ibv_create_cq(cqe=256) failed: Connection timed out
[1739881010.197799] [ohm:53436:0]        ib_iface.c:1059 UCX  ERROR ibv_create_cq(cqe=256) failed: Connection timed out
[1739881010.200136] [ohm:53465:0]        ib_iface.c:1059 UCX  ERROR ibv_create_cq(cqe=256) failed: Connection timed out
[1739881010.202675] [ohm:53434:0]        ib_iface.c:1059 UCX  ERROR ibv_create_cq(cqe=256) failed: Connection timed out
[1739881010.238880] [ohm:53452:0]        ib_iface.c:1059 UCX  ERROR ibv_create_cq(cqe=256) failed: Connection timed out
[1739881010.256396] [ohm:53441:0]        ib_iface.c:1059 UCX  ERROR ibv_create_cq(cqe=256) failed: Connection timed out
[1739881010.266828] [ohm:53440:0]        ib_iface.c:1059 UCX  ERROR ibv_create_cq(cqe=256) failed: Connection timed out
[1739881010.344468] [ohm:53435:0]        ib_iface.c:1059 UCX  ERROR ibv_create_cq(cqe=256) failed: Connection timed out
[1739881010.348079] [ohm:53451:0]        ib_iface.c:1059 UCX  ERROR ibv_create_cq(cqe=256) failed: Connection timed out
[1739881010.353778] [ohm:53449:0]        ib_iface.c:1059 UCX  ERROR ibv_create_cq(cqe=256) failed: Connection timed out
[1739881010.356972] [ohm:53455:0]        ib_iface.c:1059 UCX  ERROR ibv_create_cq(cqe=256) failed: Connection timed out
[1739881010.358151] [ohm:53446:0]        ib_iface.c:1059 UCX  ERROR ibv_create_cq(cqe=256) failed: Connection timed out
[1739881010.368539] [ohm:53445:0]        ib_iface.c:1059 UCX  ERROR ibv_create_cq(cqe=256) failed: Connection timed out
[1739881010.371961] [ohm:53450:0]        ib_iface.c:1059 UCX  ERROR ibv_create_cq(cqe=256) failed: Connection timed out
[1739881010.379987] [ohm:53495:0]        ib_iface.c:1059 UCX  ERROR ibv_create_cq(cqe=256) failed: Connection timed out
[1739881010.386466] [ohm:53437:0]        ib_iface.c:1059 UCX  ERROR ibv_create_cq(cqe=256) failed: Connection timed out
[1739881010.392684] [ohm:53563:0]        ib_iface.c:1059 UCX  ERROR ibv_create_cq(cqe=256) failed: Connection timed out
[1739881010.398555] [ohm:53448:0]        ib_iface.c:1059 UCX  ERROR ibv_create_cq(cqe=256) failed: Connection timed out
[1739881010.404703] [ohm:53457:0]        ib_iface.c:1059 UCX  ERROR ibv_create_cq(cqe=256) failed: Connection timed out
[1739881010.429272] [ohm:53581:0]        ib_iface.c:1059 UCX  ERROR ibv_create_cq(cqe=256) failed: Connection timed out
[1739881010.432578] [ohm:53480:0]        ib_iface.c:1059 UCX  ERROR ibv_create_cq(cqe=256) failed: Connection timed out
[1739881010.447642] [ohm:53536:0]        ib_iface.c:1059 UCX  ERROR ibv_create_cq(cqe=256) failed: Connection timed out
[1739881010.448104] [ohm:53454:0]        ib_iface.c:1059 UCX  ERROR ibv_create_cq(cqe=256) failed: Connection timed out
[1739881010.451152] [ohm:53444:0]        ib_iface.c:1059 UCX  ERROR ibv_create_cq(cqe=256) failed: Connection timed out
[1739881010.453717] [ohm:53562:0]        ib_iface.c:1059 UCX  ERROR ibv_create_cq(cqe=256) failed: Connection timed out
[1739881010.460229] [ohm:53489:0]        ib_iface.c:1059 UCX  ERROR ibv_create_cq(cqe=256) failed: Connection timed out
[1739881010.467315] [ohm:53533:0]        ib_iface.c:1059 UCX  ERROR ibv_create_cq(cqe=256) failed: Connection timed out
[1739881010.474049] [ohm:53530:0]        ib_iface.c:1059 UCX  ERROR ibv_create_cq(cqe=256) failed: Connection timed out
[1739881010.478140] [ohm:53483:0]        ib_iface.c:1059 UCX  ERROR ibv_create_cq(cqe=256) failed: Connection timed out
[1739881010.478168] [ohm:53575:0]        ib_iface.c:1059 UCX  ERROR ibv_create_cq(cqe=256) failed: Connection timed out
[1739881010.478977] [ohm:53553:0]        ib_iface.c:1059 UCX  ERROR ibv_create_cq(cqe=256) failed: Connection timed out
[1739881010.486763] [ohm:53479:0]        ib_iface.c:1059 UCX  ERROR ibv_create_cq(cqe=256) failed: Connection timed out
[1739881010.487818] [ohm:53459:0]        ib_iface.c:1059 UCX  ERROR ibv_create_cq(cqe=256) failed: Connection timed out
[1739881010.489929] [ohm:53523:0]        ib_iface.c:1059 UCX  ERROR ibv_create_cq(cqe=256) failed: Connection timed out
[1739881010.496245] [ohm:53472:0]        ib_iface.c:1059 UCX  ERROR ibv_create_cq(cqe=256) failed: Connection timed out
[1739881010.498659] [ohm:53515:0]        ib_iface.c:1059 UCX  ERROR ibv_create_cq(cqe=256) failed: Connection timed out
[1739881010.513011] [ohm:53477:0]        ib_iface.c:1059 UCX  ERROR ibv_create_cq(cqe=256) failed: Connection timed out
[1739881010.521568] [ohm:53555:0]        ib_iface.c:1059 UCX  ERROR ibv_create_cq(cqe=256) failed: Connection timed out
[1739881010.528185] [ohm:53469:0]        ib_iface.c:1059 UCX  ERROR ibv_create_cq(cqe=256) failed: Connection timed out
[1739881010.529703] [ohm:53522:0]        ib_iface.c:1059 UCX  ERROR ibv_create_cq(cqe=256) failed: Connection timed out
[1739881010.532205] [ohm:53559:0]        ib_iface.c:1059 UCX  ERROR ibv_create_cq(cqe=256) failed: Connection timed out
[1739881010.535776] [ohm:53499:0]        ib_iface.c:1059 UCX  ERROR ibv_create_cq(cqe=256) failed: Connection timed out
[1739881010.537242] [ohm:53453:0]        ib_iface.c:1059 UCX  ERROR ibv_create_cq(cqe=256) failed: Connection timed out
[1739881010.541237] [ohm:53491:0]        ib_iface.c:1059 UCX  ERROR ibv_create_cq(cqe=256) failed: Connection timed out
[1739881010.541328] [ohm:53543:0]        ib_iface.c:1059 UCX  ERROR ibv_create_cq(cqe=256) failed: Connection timed out
[1739881010.542508] [ohm:53544:0]        ib_iface.c:1059 UCX  ERROR ibv_create_cq(cqe=256) failed: Connection timed out
[1739881010.543461] [ohm:53528:0]        ib_iface.c:1059 UCX  ERROR ibv_create_cq(cqe=256) failed: Connection timed out
[1739881010.543779] [ohm:53512:0]        ib_iface.c:1059 UCX  ERROR ibv_create_cq(cqe=256) failed: Connection timed out
[1739881010.549840] [ohm:53569:0]        ib_iface.c:1059 UCX  ERROR ibv_create_cq(cqe=256) failed: Connection timed out
[1739881010.553292] [ohm:53485:0]        ib_iface.c:1059 UCX  ERROR ibv_create_cq(cqe=256) failed: Connection timed out
[1739881010.553621] [ohm:53439:0]        ib_iface.c:1059 UCX  ERROR ibv_create_cq(cqe=256) failed: Connection timed out
[1739881010.553790] [ohm:53538:0]        ib_iface.c:1059 UCX  ERROR ibv_create_cq(cqe=256) failed: Connection timed out
[1739881010.555116] [ohm:53549:0]        ib_iface.c:1059 UCX  ERROR ibv_create_cq(cqe=256) failed: Connection timed out
[1739881010.555299] [ohm:53461:0]        ib_iface.c:1059 UCX  ERROR ibv_create_cq(cqe=256) failed: Connection timed out
[1739881010.555506] [ohm:53442:0]        ib_iface.c:1059 UCX  ERROR ibv_create_cq(cqe=256) failed: Connection timed out
[1739881010.557424] [ohm:53508:0]        ib_iface.c:1059 UCX  ERROR ibv_create_cq(cqe=256) failed: Connection timed out
[1739881010.558213] [ohm:53505:0]        ib_iface.c:1059 UCX  ERROR ibv_create_cq(cqe=256) failed: Connection timed out
[1739881010.559899] [ohm:53447:0]        ib_iface.c:1059 UCX  ERROR ibv_create_cq(cqe=256) failed: Connection timed out
[1739881010.559969] [ohm:53475:0]        ib_iface.c:1059 UCX  ERROR ibv_create_cq(cqe=256) failed: Connection timed out
[1739881010.560712] [ohm:53517:0]        ib_iface.c:1059 UCX  ERROR ibv_create_cq(cqe=256) failed: Connection timed out

--------------------------------
SUGGESTED CITATIONS FOR THIS RUN
--------------------------------

Below you find a list of papers that are relevant to this ORCA run
We neither can nor want to force you to cite these papers, but we appreciate if you do
You receive ORCA, which is the product of decades of hard work by many enthusiastic individuals, for free
The only thing we kindly ask in return is that you cite our papers,
We deeply appreciate it, if you show your appreciation for ORCA by not just citing the generic ORCA reference.

Please note that relegating all ORCA citations to the supporting information does *not* help us.
SI sections are not indexed - citations you put there will not count into any citation statistics
But we need these citations in order to attract the funding resources that allow us to do what we are doing

Therefore, if you are a happy ORCA user, please consider citing a few of the papers listed below in the main body of your paper

In addition to the list printed below, the program has created the file orca.bibtex that contains the list in bibtex format
You can import this file easily into all common literature databanks and citation aid programs


List of essential papers. We consider these as the minimum necessary citations

  1. Neese,F.
     Software update: the ORCA program system, version 5.0
     WIRES Comput. Molec. Sci., 2022 12(1)e1606
     doi.org/10.1002/wcms.1606

List of papers to cite with high priority. The work reported in these papers was absolutely
necessary for this run to complete.
Our perspective: the developers of density functionals and basis sets usually get cited in chemistry papers
Good! But without the algorithms to do something with them, the functionals or basis sets would not do anything.
Hence, in our opinion, the algorithm design and method developments papers are equally worthy of getting cited

  1. Neese,F.; Olbrich,G.
     Efficient use of the resolution of the identity approximation in time-dependent density functional calculations with hybrid density functionals
     Chem. Phys. Lett., 2002 362 170-178
     doi.org/10.1016/s0009-2614(02)01053-9
  2. Neese,F.
     An improvement of the resolution of the identity approximation for the formation of the Coulomb matrix
     J. Comp. Chem., 2003 24(14)1740-1747
     doi.org/10.1002/jcc.10318
  3. Neese,F.; Wennmohs,F.; Hansen,A.; Becker,U.
     Efficient, approximate and parallel Hartree-Fock and hybrid DFT calculations. A 'chain-of-spheres' algorithm for the Hartree-Fock exchange
     Chem. Phys., 2009 356(1-3)98-109
     doi.org/10.1016/j.chemphys.2008.10.036
  4. Petrenko,T.; Kossmann,S.; Neese,F.
     Efficient time-dependent density functional theory approximations for hybrid density functionals: Analytical gradients and parallelization
     J. Chem. Phys., 2011 134 054116
     doi.org/10.1063/1.3533441
  5. Helmich-Paris,B.; de Souza,B.; Neese,F.; Izsák,R.
     An improved chain of spheres for exchange algorithm
     J. Chem. Phys., 2021 155 104109
     doi.org/doi: 10.1063/5.0058766.
  6. Neese,F.
     The SHARK Integral Generation and Digestion System
     J. Comp. Chem., 2022  1-16
     doi.org/10.1002/jcc.26942
  7. Lehtola,S.; Steigemann,C.; Oliveira,M.; Marques,M.
     Recent developments in Libxc - A comprehensive library of functionals for density functional theory
     Software X, 2018 7 
     doi.org/10.1016/j.softx.2017.11.002
  8. Grimme,S.; Antony,J.; Ehrlich,S.; Krieg,H.
     A consistent and accurate ab initio parametrization of density functional dispersion correction (DFT-D) for the 94 elements H-Pu
     J. Chem. Phys., 2010 132 154104-XXXX
     doi.org/10.1063/1.3382344
  9. Grimme,S.; Ehrlich,S.; Goerigk,L.
     Effect of the damping function in dispersion corrected density functional theory
     J. Comput. Chem., 2011 32(7)1456-1465
     doi.org/10.1002/jcc.21759

List of suggested additional citations. These are papers that are important in the 'surrounding' of 
of this run, or papers that preceded the highly important papers. If you like your results we are grateful for a citation.

  1. Izsak,R.; Neese,F.
     An overlap fitted chain of spheres exchange method
     J. Chem. Phys., 2011 135 144105
     doi.org/10.1063/1.3646921
  2. Izsak,R.; Hansen,A.; Neese,F.
     The resolution of identity and chain of spheres approximations for the LPNO-CCSD singles Fock term
     Molec. Phys., 2012 110 2413-2417
     doi.org/10.1080/00268976.2012.687466
  3. Neese,F.
     The ORCA program system
     WIRES Comput. Molec. Sci., 2012 2(1)73-78
     doi.org/10.1002/wcms.81
  4. Izsak,R.; Neese,F.; Klopper,W.
     Robust fitting techniques in the chain of spheres approximation to the Fock exchange: The role of the complementary space
     J. Chem. Phys., 2013 139 
     doi.org/10.1063/1.4819264
  5. Neese,F.
     Software update: the ORCA program system, version 4.0
     WIRES Comput. Molec. Sci., 2018 8(1)1-6
     doi.org/10.1002/wcms.1327
  6. Neese,F.; Wennmohs,F.; Becker,U.; Riplinger,C.
     The ORCA quantum chemistry program package
     J. Chem. Phys., 2020 152 Art. No. L224108
     doi.org/10.1063/5.0004608

List of optional additional citations

  1. Neese,F.
     Approximate second-order SCF convergence for spin unrestricted wavefunctions
     Chem. Phys. Lett., 2000 325(1-3)93-98
     doi.org/10.1016/s0009-2614(00)00662-x

Timings for individual modules:

Sum of individual times          ...      304.692 sec (=   5.078 min)
Startup calculation              ...        6.391 sec (=   0.107 min)   2.1 %
SCF iterations                   ...      142.300 sec (=   2.372 min)  46.7 %
Property integrals               ...        4.238 sec (=   0.071 min)   1.4 %
Property calculations            ...        2.849 sec (=   0.047 min)   0.9 %
CIS module                       ...      148.914 sec (=   2.482 min)  48.9 %
                             ****ORCA TERMINATED NORMALLY****
TOTAL RUN TIME: 0 days 0 hours 5 minutes 6 seconds 924 msec
