
                                 *****************
                                 * O   R   C   A *
                                 *****************

                                            #,                                       
                                            ###                                      
                                            ####                                     
                                            #####                                    
                                            ######                                   
                                           ########,                                 
                                     ,,################,,,,,                         
                               ,,#################################,,                 
                          ,,##########################################,,             
                       ,#########################################, ''#####,          
                    ,#############################################,,   '####,        
                  ,##################################################,,,,####,       
                ,###########''''           ''''###############################       
              ,#####''   ,,,,##########,,,,          '''####'''          '####       
            ,##' ,,,,###########################,,,                        '##       
           ' ,,###''''                  '''############,,,                           
         ,,##''                                '''############,,,,        ,,,,,,###''
      ,#''                                            '''#######################'''  
     '                                                          ''''####''''         
             ,#######,   #######,   ,#######,      ##                                
            ,#'     '#,  ##    ##  ,#'     '#,    #''#        ,####,   ,####,        
            ##       ##  ##   ,#'  ##            #'  '#       #'       #'  '#        
            ##       ##  #######   ##           ,######,      #####,   #    #        
            '#,     ,#'  ##    ##  '#,     ,#' ,#      #,     #,   #   #,  ,#        
             '#######'   ##     ##  '#######'  #'      '#     '####' # '####'        



                #########################################################
                #                        -***-                          #
                #          Department of theory and spectroscopy        #
                #                                                       #
                #                      Frank Neese                      #
                #                                                       #
                #     Directorship, Architecture, Infrastructure        #
                #                    SHARK, DRIVERS                     #
                #        Core code/Algorithms in most modules           #
                #                                                       #
                #        Max Planck Institute fuer Kohlenforschung      #
                #                Kaiser Wilhelm Platz 1                 #
                #                 D-45470 Muelheim/Ruhr                 #
                #                      Germany                          #
                #                                                       #
                #                  All rights reserved                  #
                #                        -***-                          #
                #########################################################


                         Program Version 6.0.0  -   RELEASE  -


 With contributions from (in alphabetic order):
   Daniel Aravena         : Magnetic Suceptibility
   Michael Atanasov       : Ab Initio Ligand Field Theory (pilot matlab implementation)
   Alexander A. Auer      : GIAO ZORA, VPT2 properties, NMR spectrum
   Ute Becker             : All parallelization in ORCA, NUMFREQ, NUMCALC
   Giovanni Bistoni       : ED, misc. LED, open-shell LED, HFLD
   Martin Brehm           : Molecular dynamics
   Dmytro Bykov           : pre 5.0 version of the SCF Hessian
   Marcos Casanova-Páez   : Triplet and SCS-CIS(D). UHF-(DLPNO)-IP/EA/STEOM-CCSD. UHF-CVS-IP/STEOM-CCSD
   Vijay G. Chilkuri      : MRCI spin determinant printing, contributions to CSF-ICE
   Pauline Colinet        : FMM embedding
   Dipayan Datta          : RHF DLPNO-CCSD density
   Achintya Kumar Dutta   : EOM-CC, STEOM-CC
   Nicolas Foglia         : Exact transition moments, OPA infrastructure, MCD improvements
   Dmitry Ganyushin       : Spin-Orbit,Spin-Spin,Magnetic field MRCI
   Miquel Garcia          : C-PCM and meta-GGA Hessian, CCSD/C-PCM, Gaussian charge scheme
   Tiago L. C. Gouveia    : GS-ROHF, GS-ROCIS
   Yang Guo               : DLPNO-NEVPT2, F12-NEVPT2, CIM, IAO-localization
   Andreas Hansen         : Spin unrestricted coupled pair/coupled cluster methods
   Ingolf Harden          : AUTO-CI MPn and infrastructure 
   Benjamin Helmich-Paris : MC-RPA, TRAH-(SCF,CASSCF), AVAS, COSX integrals, SCF dyn. polar.
   Lee Huntington         : MR-EOM, pCC
   Robert Izsak           : Overlap fitted RIJCOSX, COSX-SCS-MP3, EOM
   Riya Kayal             : Wick's Theorem for AUTO-CI, AUTO-CI UHF-CCSDT
   Emily Kempfer          : AUTO-CI, RHF CISDT and CCSDT
   Christian Kollmar      : KDIIS, OOCD, Brueckner-CCSD(T), CCSD density, CASPT2, CASPT2-K, improved NEVPT2
   Axel Koslowski         : Symmetry handling
   Simone Kossmann        : Meta GGA functionals, TD-DFT gradient, OOMP2, (MP2 Hessian; deprecated post 5.0)
   Lucas Lang             : DCDCAS
   Marvin Lechner         : AUTO-CI (C++ implementation), FIC-MRCC
   Spencer Leger          : CASSCF response
   Dagmar Lenk            : GEPOL surface, SMD, ORCA-2-JSON
   Dimitrios Liakos       : Extrapolation schemes; Compound Job, initial MDCI parallelization
   Dimitrios Manganas     : Further ROCIS development; embedding schemes. LFT, Crystal Embedding
   Dimitrios Pantazis     : SARC Basis sets
   Anastasios Papadopoulos: AUTO-CI, single reference methods and gradients
   Taras Petrenko         : pre 6.0 DFT Hessian and TD-DFT gradient, (ASA, deprecated), ECA, 1-Electron XAS/XES, NRVS
   Peter Pinski           : DLPNO-MP2, DLPNO-MP2 Gradient
   Christoph Reimann      : Effective Core Potentials
   Marius Retegan         : Local ZFS, SOC
   Christoph Riplinger    : Optimizer, TS searches, QM/MM, DLPNO-CCSD(T), (RO)-DLPNO pert. Triples
   Michael Roemelt        : Original ROCIS implementation
   Masaaki Saitow         : Open-shell DLPNO-CCSD energy and density
   Barbara Sandhoefer     : DKH picture change effects
   Kantharuban Sivalingam : CASSCF convergence/infrastructure, NEVPT2 and variants, FIC-MRCI
   Bernardo de Souza      : ESD, SOC TD-DFT
   Georgi Stoychev        : AutoAux, RI-MP2 NMR, DLPNO-MP2 response, X2C
   Van Anh Tran           : RI-MP2 g-tensors
   Willem Van den Heuvel  : Paramagnetic NMR
   Zikuan Wang            : NOTCH, Electric field optimization 
   Frank Wennmohs         : Technical directorship and infrastructure
   Hang Xu                : AUTO-CI-Response properties 


 We gratefully acknowledge several colleagues who have allowed us to
 interface, adapt or use parts of their codes:
   Stefan Grimme, W. Hujo, H. Kruse, P. Pracht,  : VdW corrections, initial TS optimization,
                  C. Bannwarth, S. Ehlert,         DFT functionals, gCP, sTDA/sTD-DF
                  L. Wittmann, M. Mueller
   Ed Valeev, F. Pavosevic, A. Kumar             : LibInt (2-el integral package), F12 methods
   Garnet Chan, S. Sharma, J. Yang, R. Olivares  : DMRG
   Ulf Ekstrom                                   : XCFun DFT Library
   Mihaly Kallay                                 : mrcc  (arbitrary order and MRCC methods)
   Frank Weinhold                                : gennbo (NPA and NBO analysis)
   Simon Mueller                                 : openCOSMO-RS
   Christopher J. Cramer and Donald G. Truhlar   : smd solvation model
   Lars Goerigk                                  : TD-DFT with DH, B97 family of functionals
   V. Asgeirsson, H. Jonsson                     : NEB implementation
   FAccTs GmbH                                   : IRC, NEB, NEB-TS, DLPNO-Multilevel, CI-OPT
                                                   MM, QMMM, 2- and 3-layer-ONIOM, Crystal-QMMM,
                                                   LR-CPCM, SF, NACMEs, symmetry and pop. for TD-DFT,
                                                   nearIR, NL-DFT gradient (VV10), updates on ESD,
                                                   ML-optimized integration grids, MBIS, APM,
                                                   GOAT, DOCKER, SOLVATOR, interface openCOSMO-RS
   S Lehtola, MJT Oliveira, MAL Marques          : LibXC Library
   Liviu Ungur et al                             : ANISO software


 Your calculation uses the libint2 library for the computation of 2-el integrals
 For citations please refer to: http://libint.valeyev.net

 Your ORCA version has been built with support for libXC version: 6.2.2
 For citations please refer to: https://libxc.gitlab.io

 This ORCA versions uses:
   CBLAS   interface :  Fast vector & matrix operations
   LAPACKE interface :  Fast linear algebra routines
   SCALAPACK package :  Parallel linear algebra routines
   Shared memory     :  Shared parallel matrices
   BLAS/LAPACK       :  OpenBLAS 0.3.27  USE64BITINT DYNAMIC_ARCH NO_AFFINITY Zen SINGLE_THREADED
        Core in use  :  Zen
   Copyright (c) 2011-2014, The OpenBLAS Project


Your calculation utilizes the atom-pairwise dispersion correction
with the Becke-Johnson damping scheme (D3BJ)


Warning: RI is on but no J-basis has been assigned. Assigning Def2/J (nothing to worry about!)
================================================================================

----- Orbital basis set information -----
Your calculation utilizes the basis: def2-TZVPPD
   F. Weigend and R. Ahlrichs, Phys. Chem. Chem. Phys. 7, 3297 (2005).
   D. Rappoport and F. Furche, J. Chem. Phys. 133, 134105 (2010)
   D. Rappoport, J. Chem. Phys. 155, 124102 (2021).

----- AuxJ basis set information -----
Your calculation utilizes the auxiliary basis: def2/J
   F. Weigend, Phys. Chem. Chem. Phys. 8, 1057 (2006).

================================================================================
                                        WARNINGS
                       Please study these warnings very carefully!
================================================================================

Using LibXC functional ID 531 : wB97M-V exchange-correlation functional
[ 1]  N. Mardirossian and M. Head-Gordon.,  J. Chem. Phys. 144, 214110 (2016)
Using LibXC functional ID 531 : wB97M-V exchange-correlation functional
[ 1]  N. Mardirossian and M. Head-Gordon.,  J. Chem. Phys. 144, 214110 (2016)

WARNING: B97M-V or wB97M-V functional requested.
  ===> : libXC variant has now been activated.
         Any manually given DFX/HFX/RangeSep scaling parameters are IGNORED!

Your calculation utilizes LibXC
 by S Lehtola, C Steigemann, MJT Oliveira & MAL Marques
Please cite in your paper:
 S Lehtola, C Steigemann, MJT Oliveira & MAL Marques, SoftwareX, 7, (2018), 1.
   


WARNING: your system is open-shell and RHF/RKS was chosen
  ===> : WILL SWITCH to UHF/UKS

INFO   : Checking CIS options ...

WARNING: CIS/ROCIS methods need fully converged wavefunctions
  ===> : Setting SCFConvForced true
         You can overwrite this default with %scf ConvForced false 


================================================================================
                                       INPUT FILE
================================================================================
NAME = orca.inp
|  1> ! Engrad def2-TZVPPD wB97M-D3BJ 
|  2> %pal nprocs 8 end%pal nprocs 64 end 
|  3> %tddft 
|  4>  Iroot 2 Nroots 3 
|  5> sf true 
|  6> end 
|  7> *xyz 0 3 
|  8> O   0.1816296 0.41273601 1.11559852
|  9> C   0.0355813 -0.35670464 -0.0637001
| 10> C   1.08119973 0.11457991 -0.93988984
| 11> H   -1.04199832 -0.06520225 -0.36733946
| 12> H   -0.10577786 -1.35815329 0.30716106
| 13> H   1.64184973 -0.59972387 -1.47707152
| 14> H   1.22519932 1.16302884 -1.07847953
| 15> *
| 16> 
| 17>                          ****END OF INPUT****
================================================================================

                     *******************************
                     * Energy+Gradient Calculation *
                     *******************************

---------------------------------
CARTESIAN COORDINATES (ANGSTROEM)
---------------------------------
  O      0.181630    0.412736    1.115599
  C      0.035581   -0.356705   -0.063700
  C      1.081200    0.114580   -0.939890
  H     -1.041998   -0.065202   -0.367339
  H     -0.105778   -1.358153    0.307161
  H      1.641850   -0.599724   -1.477072
  H      1.225199    1.163029   -1.078480

----------------------------
CARTESIAN COORDINATES (A.U.)
----------------------------
  NO LB      ZA    FRAG     MASS         X           Y           Z
   0 O     8.0000    0    15.999    0.343230    0.779958    2.108176
   1 C     6.0000    0    12.011    0.067239   -0.674074   -0.120376
   2 C     6.0000    0    12.011    2.043171    0.216525   -1.776134
   3 H     1.0000    0     1.008   -1.969091   -0.123214   -0.694171
   4 H     1.0000    0     1.008   -0.199891   -2.566538    0.580450
   5 H     1.0000    0     1.008    3.102646   -1.133314   -2.791261
   6 H     1.0000    0     1.008    2.315291    2.197806   -2.038031

--------------------------------
INTERNAL COORDINATES (ANGSTROEM)
--------------------------------
 O      0   0   0     0.000000000000     0.00000000     0.00000000
 C      1   0   0     1.415667423846     0.00000000     0.00000000
 C      2   1   0     1.443307135957   104.68446017     0.00000000
 H      2   1   3     1.156870062607   100.24077507   239.84017029
 H      2   1   3     1.077227836021   103.41660066   135.09500113
 H      3   2   1     1.055046193278   118.22900783   136.41930931
 H      3   2   1     1.067327570576   119.82306536   312.38445571

---------------------------
INTERNAL COORDINATES (A.U.)
---------------------------
 O      0   0   0     0.000000000000     0.00000000     0.00000000
 C      1   0   0     2.675223727783     0.00000000     0.00000000
 C      2   1   0     2.727455214094   104.68446017     0.00000000
 H      2   1   3     2.186167590860   100.24077507   239.84017029
 H      2   1   3     2.035665593917   103.41660066   135.09500113
 H      3   2   1     1.993748363931   118.22900783   136.41930931
 H      3   2   1     2.016956803573   119.82306536   312.38445571

---------------------
BASIS SET INFORMATION
---------------------
There are 3 groups of distinct atoms

 Group   1 Type O   : 12s7p3d1f contracted to 6s4p3d1f pattern {621111/4111/111/1}
 Group   2 Type C   : 12s6p3d1f contracted to 6s3p3d1f pattern {621111/411/111/1}
 Group   3 Type H   : 5s3p1d contracted to 3s3p1d pattern {311/111/1}

Atom   0O    basis set group =>   1
Atom   1C    basis set group =>   2
Atom   2C    basis set group =>   2
Atom   3H    basis set group =>   3
Atom   4H    basis set group =>   3
Atom   5H    basis set group =>   3
Atom   6H    basis set group =>   3
---------------------------------
AUXILIARY/J BASIS SET INFORMATION
---------------------------------
There are 3 groups of distinct atoms

 Group   1 Type O   : 12s5p4d2f1g contracted to 6s4p3d1f1g pattern {711111/2111/211/2/1}
 Group   2 Type C   : 12s5p4d2f1g contracted to 6s4p3d1f1g pattern {711111/2111/211/2/1}
 Group   3 Type H   : 5s2p1d contracted to 3s1p1d pattern {311/2/1}

Atom   0O    basis set group =>   1
Atom   1C    basis set group =>   2
Atom   2C    basis set group =>   2
Atom   3H    basis set group =>   3
Atom   4H    basis set group =>   3
Atom   5H    basis set group =>   3
Atom   6H    basis set group =>   3
[1741610868.151474] [ohm:3451287:0]        ib_iface.c:1059 UCX  ERROR ibv_create_cq(cqe=256) failed: Connection timed out
[1741610868.167758] [ohm:3451286:0]        ib_iface.c:1059 UCX  ERROR ibv_create_cq(cqe=256) failed: Connection timed out
[1741610868.194819] [ohm:3451289:0]        ib_iface.c:1059 UCX  ERROR ibv_create_cq(cqe=256) failed: Connection timed out
[1741610868.202890] [ohm:3451297:0]        ib_iface.c:1059 UCX  ERROR ibv_create_cq(cqe=256) failed: Connection timed out
[1741610868.206341] [ohm:3451291:0]        ib_iface.c:1059 UCX  ERROR ibv_create_cq(cqe=256) failed: Connection timed out
[1741610868.227613] [ohm:3451326:0]        ib_iface.c:1059 UCX  ERROR ibv_create_cq(cqe=256) failed: Connection timed out
[1741610868.234566] [ohm:3451352:0]        ib_iface.c:1059 UCX  ERROR ibv_create_cq(cqe=256) failed: Connection timed out
[1741610868.243272] [ohm:3451288:0]        ib_iface.c:1059 UCX  ERROR ibv_create_cq(cqe=256) failed: Connection timed out
[1741610868.245140] [ohm:3451295:0]        ib_iface.c:1059 UCX  ERROR ibv_create_cq(cqe=256) failed: Connection timed out
[1741610868.249148] [ohm:3451354:0]        ib_iface.c:1059 UCX  ERROR ibv_create_cq(cqe=256) failed: Connection timed out
[1741610868.252902] [ohm:3451294:0]        ib_iface.c:1059 UCX  ERROR ibv_create_cq(cqe=256) failed: Connection timed out
[1741610868.256090] [ohm:3451350:0]        ib_iface.c:1059 UCX  ERROR ibv_create_cq(cqe=256) failed: Connection timed out
[1741610868.262790] [ohm:3451383:0]        ib_iface.c:1059 UCX  ERROR ibv_create_cq(cqe=256) failed: Connection timed out
[1741610868.263451] [ohm:3451380:0]        ib_iface.c:1059 UCX  ERROR ibv_create_cq(cqe=256) failed: Connection timed out
[1741610868.264409] [ohm:3451290:0]        ib_iface.c:1059 UCX  ERROR ibv_create_cq(cqe=256) failed: Connection timed out
[1741610868.288777] [ohm:3451348:0]        ib_iface.c:1059 UCX  ERROR ibv_create_cq(cqe=256) failed: Connection timed out
[1741610868.348446] [ohm:3451386:0]        ib_iface.c:1059 UCX  ERROR ibv_create_cq(cqe=256) failed: Connection timed out
[1741610868.357774] [ohm:3451440:0]        ib_iface.c:1059 UCX  ERROR ibv_create_cq(cqe=256) failed: Connection timed out
[1741610868.357930] [ohm:3451415:0]        ib_iface.c:1059 UCX  ERROR ibv_create_cq(cqe=256) failed: Connection timed out
[1741610868.364077] [ohm:3451293:0]        ib_iface.c:1059 UCX  ERROR ibv_create_cq(cqe=256) failed: Connection timed out
[1741610868.370851] [ohm:3451427:0]        ib_iface.c:1059 UCX  ERROR ibv_create_cq(cqe=256) failed: Connection timed out
[1741610868.371196] [ohm:3451407:0]        ib_iface.c:1059 UCX  ERROR ibv_create_cq(cqe=256) failed: Connection timed out
[1741610868.373543] [ohm:3451399:0]        ib_iface.c:1059 UCX  ERROR ibv_create_cq(cqe=256) failed: Connection timed out
[1741610868.373902] [ohm:3451349:0]        ib_iface.c:1059 UCX  ERROR ibv_create_cq(cqe=256) failed: Connection timed out
[1741610868.378015] [ohm:3451303:0]        ib_iface.c:1059 UCX  ERROR ibv_create_cq(cqe=256) failed: Connection timed out
[1741610868.378961] [ohm:3451429:0]        ib_iface.c:1059 UCX  ERROR ibv_create_cq(cqe=256) failed: Connection timed out
[1741610868.402722] [ohm:3451388:0]        ib_iface.c:1059 UCX  ERROR ibv_create_cq(cqe=256) failed: Connection timed out
[1741610868.403912] [ohm:3451376:0]        ib_iface.c:1059 UCX  ERROR ibv_create_cq(cqe=256) failed: Connection timed out
[1741610868.410086] [ohm:3451356:0]        ib_iface.c:1059 UCX  ERROR ibv_create_cq(cqe=256) failed: Connection timed out
[1741610868.410959] [ohm:3451334:0]        ib_iface.c:1059 UCX  ERROR ibv_create_cq(cqe=256) failed: Connection timed out
[1741610868.418704] [ohm:3451361:0]        ib_iface.c:1059 UCX  ERROR ibv_create_cq(cqe=256) failed: Connection timed out
[1741610868.419477] [ohm:3451338:0]        ib_iface.c:1059 UCX  ERROR ibv_create_cq(cqe=256) failed: Connection timed out
[1741610868.421138] [ohm:3451359:0]        ib_iface.c:1059 UCX  ERROR ibv_create_cq(cqe=256) failed: Connection timed out
[1741610868.428493] [ohm:3451351:0]        ib_iface.c:1059 UCX  ERROR ibv_create_cq(cqe=256) failed: Connection timed out
[1741610868.431549] [ohm:3451357:0]        ib_iface.c:1059 UCX  ERROR ibv_create_cq(cqe=256) failed: Connection timed out
[1741610868.436998] [ohm:3451311:0]        ib_iface.c:1059 UCX  ERROR ibv_create_cq(cqe=256) failed: Connection timed out
[1741610868.438910] [ohm:3451316:0]        ib_iface.c:1059 UCX  ERROR ibv_create_cq(cqe=256) failed: Connection timed out
[1741610868.441424] [ohm:3451364:0]        ib_iface.c:1059 UCX  ERROR ibv_create_cq(cqe=256) failed: Connection timed out
[1741610868.442376] [ohm:3451313:0]        ib_iface.c:1059 UCX  ERROR ibv_create_cq(cqe=256) failed: Connection timed out
[1741610868.444736] [ohm:3451329:0]        ib_iface.c:1059 UCX  ERROR ibv_create_cq(cqe=256) failed: Connection timed out
[1741610868.447161] [ohm:3451362:0]        ib_iface.c:1059 UCX  ERROR ibv_create_cq(cqe=256) failed: Connection timed out
[1741610868.453680] [ohm:3451360:0]        ib_iface.c:1059 UCX  ERROR ibv_create_cq(cqe=256) failed: Connection timed out
[1741610868.459873] [ohm:3451411:0]        ib_iface.c:1059 UCX  ERROR ibv_create_cq(cqe=256) failed: Connection timed out
[1741610868.462250] [ohm:3451406:0]        ib_iface.c:1059 UCX  ERROR ibv_create_cq(cqe=256) failed: Connection timed out
[1741610868.468253] [ohm:3451421:0]        ib_iface.c:1059 UCX  ERROR ibv_create_cq(cqe=256) failed: Connection timed out
[1741610868.476068] [ohm:3451322:0]        ib_iface.c:1059 UCX  ERROR ibv_create_cq(cqe=256) failed: Connection timed out
[1741610868.476449] [ohm:3451369:0]        ib_iface.c:1059 UCX  ERROR ibv_create_cq(cqe=256) failed: Connection timed out
[1741610868.476857] [ohm:3451292:0]        ib_iface.c:1059 UCX  ERROR ibv_create_cq(cqe=256) failed: Connection timed out
[1741610868.484713] [ohm:3451355:0]        ib_iface.c:1059 UCX  ERROR ibv_create_cq(cqe=256) failed: Connection timed out
[1741610868.487217] [ohm:3451425:0]        ib_iface.c:1059 UCX  ERROR ibv_create_cq(cqe=256) failed: Connection timed out
[1741610868.490404] [ohm:3451342:0]        ib_iface.c:1059 UCX  ERROR ibv_create_cq(cqe=256) failed: Connection timed out
[1741610868.491771] [ohm:3451327:0]        ib_iface.c:1059 UCX  ERROR ibv_create_cq(cqe=256) failed: Connection timed out
[1741610868.492335] [ohm:3451344:0]        ib_iface.c:1059 UCX  ERROR ibv_create_cq(cqe=256) failed: Connection timed out
[1741610868.492912] [ohm:3451393:0]        ib_iface.c:1059 UCX  ERROR ibv_create_cq(cqe=256) failed: Connection timed out
[1741610868.500485] [ohm:3451353:0]        ib_iface.c:1059 UCX  ERROR ibv_create_cq(cqe=256) failed: Connection timed out
[1741610868.500952] [ohm:3451296:0]        ib_iface.c:1059 UCX  ERROR ibv_create_cq(cqe=256) failed: Connection timed out
[1741610868.504383] [ohm:3451405:0]        ib_iface.c:1059 UCX  ERROR ibv_create_cq(cqe=256) failed: Connection timed out
[1741610868.507173] [ohm:3451373:0]        ib_iface.c:1059 UCX  ERROR ibv_create_cq(cqe=256) failed: Connection timed out
[1741610868.507624] [ohm:3451307:0]        ib_iface.c:1059 UCX  ERROR ibv_create_cq(cqe=256) failed: Connection timed out
[1741610868.509617] [ohm:3451366:0]        ib_iface.c:1059 UCX  ERROR ibv_create_cq(cqe=256) failed: Connection timed out
[1741610868.511773] [ohm:3451434:0]        ib_iface.c:1059 UCX  ERROR ibv_create_cq(cqe=256) failed: Connection timed out
[1741610868.512631] [ohm:3451300:0]        ib_iface.c:1059 UCX  ERROR ibv_create_cq(cqe=256) failed: Connection timed out
[1741610868.512893] [ohm:3451409:0]        ib_iface.c:1059 UCX  ERROR ibv_create_cq(cqe=256) failed: Connection timed out
[1741610868.514593] [ohm:3451358:0]        ib_iface.c:1059 UCX  ERROR ibv_create_cq(cqe=256) failed: Connection timed out


           ************************************************************
           *        Program running with 64 parallel MPI-processes    *
           *              working on a common directory               *
           ************************************************************
------------------------------------------------------------------------------
                             ORCA STARTUP CALCULATIONS
                           -- RI-GTO INTEGRALS CHOSEN --
------------------------------------------------------------------------------
------------------------------------------------------------------------------
                   ___                                                        
                  /   \      - P O W E R E D   B Y -                         
                 /     \                                                     
                 |  |  |   _    _      __       _____    __    __             
                 |  |  |  | |  | |    /  \     |  _  \  |  |  /  |          
                  \  \/   | |  | |   /    \    | | | |  |  | /  /          
                 / \  \   | |__| |  /  /\  \   | |_| |  |  |/  /          
                |  |  |   |  __  | /  /__\  \  |    /   |      \           
                |  |  |   | |  | | |   __   |  |    \   |  |\   \          
                \     /   | |  | | |  |  |  |  | |\  \  |  | \   \       
                 \___/    |_|  |_| |__|  |__|  |_| \__\ |__|  \__/        
                                                                              
                      - O R C A' S   B I G   F R I E N D -                    
                                      &                                       
                       - I N T E G R A L  F E E D E R -                       
                                                                              
 v1 FN, 2020, v2 2021, v3 2022-2024                                           
------------------------------------------------------------------------------


----------------------
SHARK INTEGRAL PACKAGE
----------------------

Number of atoms                             ...      7
Number of basis functions                   ...    182
Number of shells                            ...     68
Maximum angular momentum                    ...      3
Integral batch strategy                     ... SHARK/LIBINT Hybrid
RI-J (if used) integral strategy            ... SPLIT-RIJ (Revised 2003 algorithm where possible)
Printlevel                                  ...      1
Contraction scheme used                     ... SEGMENTED contraction
Prescreening option                         ... SCHWARTZ
   Thresh                                   ... 2.500e-11
   Tcut                                     ... 2.500e-12
   Tpresel                                  ... 2.500e-12 
Coulomb Range Separation                    ... NOT USED
Exchange Range Separation                   ... Long Range
   Mu parameter                             ... 3.000e-01
   Scaling (regular/separated)              ... 1.500e-01 8.500e-01
Multipole approximations                    ... NOT USED
Finite Nucleus Model                        ... NOT USED
CABS basis                                  ... NOT available
Auxiliary Coulomb fitting basis             ... AVAILABLE
   # of basis functions in Aux-J            ...    191
   # of shells in Aux-J                     ...     65
   Maximum angular momentum in Aux-J        ...      4
Auxiliary J/K fitting basis                 ... NOT available
Auxiliary Correlation fitting basis         ... NOT available
Auxiliary 'external' fitting basis          ... NOT available

Checking pre-screening integrals            ... done (  0.0 sec) Dimension = 68
Check shell pair data                       ... done (  0.0 sec)
Shell pair information
Shell pair cut-off parameter TPreSel        ...   2.5e-12
Total number of shell pairs                 ...      2346
Shell pairs after pre-screening             ...      2330
Total number of primitive shell pairs       ...      5434
Primitive shell pairs kept                  ...      4828
          la=0 lb=0:    455 shell pairs
          la=1 lb=0:    657 shell pairs
          la=1 lb=1:    253 shell pairs
          la=2 lb=0:    387 shell pairs
          la=2 lb=1:    286 shell pairs
          la=2 lb=2:     91 shell pairs
          la=3 lb=0:     90 shell pairs
          la=3 lb=1:     66 shell pairs
          la=3 lb=2:     39 shell pairs
          la=3 lb=3:      6 shell pairs

Calculating one electron integrals          ... done (  0.0 sec)
Calculating RI/J V-Matrix + Cholesky decomp.... done (  0.0 sec)
Calculating Nuclear repulsion               ... done (  0.0 sec) ENN=     68.448223639145 Eh

Diagonalization of the overlap matrix:
Smallest eigenvalue                        ... 1.883e-05
Time for diagonalization                   ...    0.004 sec
Threshold for overlap eigenvalues          ... 1.000e-07
Number of eigenvalues below threshold      ... 0
Time for construction of square roots      ...    0.003 sec
Total time needed                          ...    0.008 sec

-------------------
DFT GRID GENERATION
-------------------

General Integration Accuracy     IntAcc      ... 4.388
Radial Grid Type                 RadialGrid  ... OptM3 with GC (2021)
Angular Grid (max. ang.)         AngularGrid ... 4 (Lebedev-302)
Angular grid pruning method      GridPruning ... 4 (adaptive)
Weight generation scheme         WeightScheme... mBecke (2022)
Basis function cutoff            BFCut       ... 1.0000e-11
Integration weight cutoff        WCut        ... 1.0000e-14
Partially contracted basis set               ... off
Rotationally invariant grid construction     ... off
Angular grids for H and He will be reduced by one unit
Diffuse basis detected: some atoms will have their outermost
                        angular grid increased by 1.

Total number of grid points                  ...    33144
Total number of batches                      ...      522
Average number of points per batch           ...       63
Average number of grid points per atom       ...     4735

--------------------
COSX GRID GENERATION
--------------------

GRIDX 1
-------
General Integration Accuracy     IntAcc      ... 3.816
Radial Grid Type                 RadialGrid  ... OptM3 with GC (2021)
Angular Grid (max. ang.)         AngularGrid ... 1 (Lebedev-50)
Angular grid pruning method      GridPruning ... 4 (adaptive)
Weight generation scheme         WeightScheme... mBecke (2022)
Basis function cutoff            BFCut       ... 1.0000e-11
Integration weight cutoff        WCut        ... 1.0000e-14
Partially contracted basis set               ... on
Rotationally invariant grid construction     ... off
Angular grids for H and He will be reduced by one unit
Diffuse basis detected: some atoms will have their outermost
                        angular grid increased by 1.

Total number of grid points                  ...     4181
Total number of batches                      ...       37
Average number of points per batch           ...      113
Average number of grid points per atom       ...      597
UseSFitting                                  ... on

GRIDX 2
-------
General Integration Accuracy     IntAcc      ... 4.020
Radial Grid Type                 RadialGrid  ... OptM3 with GC (2021)
Angular Grid (max. ang.)         AngularGrid ... 2 (Lebedev-110)
Angular grid pruning method      GridPruning ... 4 (adaptive)
Weight generation scheme         WeightScheme... mBecke (2022)
Basis function cutoff            BFCut       ... 1.0000e-11
Integration weight cutoff        WCut        ... 1.0000e-14
Partially contracted basis set               ... on
Rotationally invariant grid construction     ... off
Angular grids for H and He will be reduced by one unit
Diffuse basis detected: some atoms will have their outermost
                        angular grid increased by 1.

Total number of grid points                  ...    10282
Total number of batches                      ...       84
Average number of points per batch           ...      122
Average number of grid points per atom       ...     1469
UseSFitting                                  ... on

GRIDX 3
-------
General Integration Accuracy     IntAcc      ... 4.338
Radial Grid Type                 RadialGrid  ... OptM3 with GC (2021)
Angular Grid (max. ang.)         AngularGrid ... 3 (Lebedev-194)
Angular grid pruning method      GridPruning ... 4 (adaptive)
Weight generation scheme         WeightScheme... mBecke (2022)
Basis function cutoff            BFCut       ... 1.0000e-11
Integration weight cutoff        WCut        ... 1.0000e-14
Partially contracted basis set               ... on
Rotationally invariant grid construction     ... off
Angular grids for H and He will be reduced by one unit
Diffuse basis detected: some atoms will have their outermost
                        angular grid increased by 1.

Total number of grid points                  ...    23141
Total number of batches                      ...      184
Average number of points per batch           ...      125
Average number of grid points per atom       ...     3306
UseSFitting                                  ... on
Initializing property integral containers    ... done (  0.0 sec)

SHARK setup successfully completed in   0.4 seconds

Maximum memory used throughout the entire STARTUP-calculation: 13.8 MB
[1741610870.642490] [ohm:3451620:0]        ib_iface.c:1059 UCX  ERROR ibv_create_cq(cqe=256) failed: Connection timed out
[1741610870.659994] [ohm:3451626:0]        ib_iface.c:1059 UCX  ERROR ibv_create_cq(cqe=256) failed: Connection timed out
[1741610870.661107] [ohm:3451622:0]        ib_iface.c:1059 UCX  ERROR ibv_create_cq(cqe=256) failed: Connection timed out
[1741610870.661851] [ohm:3451624:0]        ib_iface.c:1059 UCX  ERROR ibv_create_cq(cqe=256) failed: Connection timed out
[1741610870.670266] [ohm:3451623:0]        ib_iface.c:1059 UCX  ERROR ibv_create_cq(cqe=256) failed: Connection timed out
[1741610870.675704] [ohm:3451627:0]        ib_iface.c:1059 UCX  ERROR ibv_create_cq(cqe=256) failed: Connection timed out
[1741610870.678190] [ohm:3451635:0]        ib_iface.c:1059 UCX  ERROR ibv_create_cq(cqe=256) failed: Connection timed out
[1741610870.688738] [ohm:3451636:0]        ib_iface.c:1059 UCX  ERROR ibv_create_cq(cqe=256) failed: Connection timed out
[1741610870.691011] [ohm:3451619:0]        ib_iface.c:1059 UCX  ERROR ibv_create_cq(cqe=256) failed: Connection timed out
[1741610870.700360] [ohm:3451631:0]        ib_iface.c:1059 UCX  ERROR ibv_create_cq(cqe=256) failed: Connection timed out
[1741610870.716781] [ohm:3451738:0]        ib_iface.c:1059 UCX  ERROR ibv_create_cq(cqe=256) failed: Connection timed out
[1741610870.725130] [ohm:3451637:0]        ib_iface.c:1059 UCX  ERROR ibv_create_cq(cqe=256) failed: Connection timed out
[1741610870.731523] [ohm:3451628:0]        ib_iface.c:1059 UCX  ERROR ibv_create_cq(cqe=256) failed: Connection timed out
[1741610870.735859] [ohm:3451662:0]        ib_iface.c:1059 UCX  ERROR ibv_create_cq(cqe=256) failed: Connection timed out
[1741610870.736574] [ohm:3451630:0]        ib_iface.c:1059 UCX  ERROR ibv_create_cq(cqe=256) failed: Connection timed out
[1741610870.771659] [ohm:3451673:0]        ib_iface.c:1059 UCX  ERROR ibv_create_cq(cqe=256) failed: Connection timed out
[1741610870.772169] [ohm:3451688:0]        ib_iface.c:1059 UCX  ERROR ibv_create_cq(cqe=256) failed: Connection timed out
[1741610870.787861] [ohm:3451701:0]        ib_iface.c:1059 UCX  ERROR ibv_create_cq(cqe=256) failed: Connection timed out
[1741610870.795274] [ohm:3451643:0]        ib_iface.c:1059 UCX  ERROR ibv_create_cq(cqe=256) failed: Connection timed out
[1741610870.797839] [ohm:3451640:0]        ib_iface.c:1059 UCX  ERROR ibv_create_cq(cqe=256) failed: Connection timed out
[1741610870.810154] [ohm:3451725:0]        ib_iface.c:1059 UCX  ERROR ibv_create_cq(cqe=256) failed: Connection timed out
[1741610870.810177] [ohm:3451621:0]        ib_iface.c:1059 UCX  ERROR ibv_create_cq(cqe=256) failed: Connection timed out
[1741610870.811628] [ohm:3451638:0]        ib_iface.c:1059 UCX  ERROR ibv_create_cq(cqe=256) failed: Connection timed out
[1741610870.815722] [ohm:3451632:0]        ib_iface.c:1059 UCX  ERROR ibv_create_cq(cqe=256) failed: Connection timed out
[1741610870.816360] [ohm:3451741:0]        ib_iface.c:1059 UCX  ERROR ibv_create_cq(cqe=256) failed: Connection timed out
[1741610870.840333] [ohm:3451625:0]        ib_iface.c:1059 UCX  ERROR ibv_create_cq(cqe=256) failed: Connection timed out
[1741610870.852208] [ohm:3451641:0]        ib_iface.c:1059 UCX  ERROR ibv_create_cq(cqe=256) failed: Connection timed out
[1741610870.853931] [ohm:3451736:0]        ib_iface.c:1059 UCX  ERROR ibv_create_cq(cqe=256) failed: Connection timed out
[1741610870.854367] [ohm:3451758:0]        ib_iface.c:1059 UCX  ERROR ibv_create_cq(cqe=256) failed: Connection timed out
[1741610870.858085] [ohm:3451644:0]        ib_iface.c:1059 UCX  ERROR ibv_create_cq(cqe=256) failed: Connection timed out
[1741610870.858984] [ohm:3451729:0]        ib_iface.c:1059 UCX  ERROR ibv_create_cq(cqe=256) failed: Connection timed out
[1741610870.859930] [ohm:3451731:0]        ib_iface.c:1059 UCX  ERROR ibv_create_cq(cqe=256) failed: Connection timed out
[1741610870.867149] [ohm:3451723:0]        ib_iface.c:1059 UCX  ERROR ibv_create_cq(cqe=256) failed: Connection timed out
[1741610870.883790] [ohm:3451755:0]        ib_iface.c:1059 UCX  ERROR ibv_create_cq(cqe=256) failed: Connection timed out
[1741610870.891831] [ohm:3451646:0]        ib_iface.c:1059 UCX  ERROR ibv_create_cq(cqe=256) failed: Connection timed out
[1741610870.898182] [ohm:3451647:0]        ib_iface.c:1059 UCX  ERROR ibv_create_cq(cqe=256) failed: Connection timed out
[1741610870.903597] [ohm:3451712:0]        ib_iface.c:1059 UCX  ERROR ibv_create_cq(cqe=256) failed: Connection timed out
[1741610870.913410] [ohm:3451752:0]        ib_iface.c:1059 UCX  ERROR ibv_create_cq(cqe=256) failed: Connection timed out
[1741610870.916034] [ohm:3451649:0]        ib_iface.c:1059 UCX  ERROR ibv_create_cq(cqe=256) failed: Connection timed out
[1741610870.916851] [ohm:3451715:0]        ib_iface.c:1059 UCX  ERROR ibv_create_cq(cqe=256) failed: Connection timed out
[1741610870.918388] [ohm:3451645:0]        ib_iface.c:1059 UCX  ERROR ibv_create_cq(cqe=256) failed: Connection timed out
[1741610870.920934] [ohm:3451657:0]        ib_iface.c:1059 UCX  ERROR ibv_create_cq(cqe=256) failed: Connection timed out
[1741610870.930630] [ohm:3451642:0]        ib_iface.c:1059 UCX  ERROR ibv_create_cq(cqe=256) failed: Connection timed out
[1741610870.931556] [ohm:3451694:0]        ib_iface.c:1059 UCX  ERROR ibv_create_cq(cqe=256) failed: Connection timed out
[1741610870.932792] [ohm:3451680:0]        ib_iface.c:1059 UCX  ERROR ibv_create_cq(cqe=256) failed: Connection timed out
[1741610870.933022] [ohm:3451703:0]        ib_iface.c:1059 UCX  ERROR ibv_create_cq(cqe=256) failed: Connection timed out
[1741610870.933771] [ohm:3451705:0]        ib_iface.c:1059 UCX  ERROR ibv_create_cq(cqe=256) failed: Connection timed out
[1741610870.938751] [ohm:3451757:0]        ib_iface.c:1059 UCX  ERROR ibv_create_cq(cqe=256) failed: Connection timed out
[1741610870.943611] [ohm:3451753:0]        ib_iface.c:1059 UCX  ERROR ibv_create_cq(cqe=256) failed: Connection timed out
[1741610870.948303] [ohm:3451709:0]        ib_iface.c:1059 UCX  ERROR ibv_create_cq(cqe=256) failed: Connection timed out
[1741610870.948430] [ohm:3451629:0]        ib_iface.c:1059 UCX  ERROR ibv_create_cq(cqe=256) failed: Connection timed out
[1741610870.952309] [ohm:3451697:0]        ib_iface.c:1059 UCX  ERROR ibv_create_cq(cqe=256) failed: Connection timed out
[1741610870.952520] [ohm:3451667:0]        ib_iface.c:1059 UCX  ERROR ibv_create_cq(cqe=256) failed: Connection timed out
[1741610870.954413] [ohm:3451728:0]        ib_iface.c:1059 UCX  ERROR ibv_create_cq(cqe=256) failed: Connection timed out
[1741610870.956018] [ohm:3451634:0]        ib_iface.c:1059 UCX  ERROR ibv_create_cq(cqe=256) failed: Connection timed out
[1741610870.956030] [ohm:3451719:0]        ib_iface.c:1059 UCX  ERROR ibv_create_cq(cqe=256) failed: Connection timed out
[1741610870.957368] [ohm:3451683:0]        ib_iface.c:1059 UCX  ERROR ibv_create_cq(cqe=256) failed: Connection timed out
[1741610870.958675] [ohm:3451670:0]        ib_iface.c:1059 UCX  ERROR ibv_create_cq(cqe=256) failed: Connection timed out
[1741610870.959422] [ohm:3451633:0]        ib_iface.c:1059 UCX  ERROR ibv_create_cq(cqe=256) failed: Connection timed out
[1741610870.960432] [ohm:3451692:0]        ib_iface.c:1059 UCX  ERROR ibv_create_cq(cqe=256) failed: Connection timed out
[1741610870.960712] [ohm:3451655:0]        ib_iface.c:1059 UCX  ERROR ibv_create_cq(cqe=256) failed: Connection timed out
[1741610870.960843] [ohm:3451727:0]        ib_iface.c:1059 UCX  ERROR ibv_create_cq(cqe=256) failed: Connection timed out
[1741610870.961484] [ohm:3451746:0]        ib_iface.c:1059 UCX  ERROR ibv_create_cq(cqe=256) failed: Connection timed out
[1741610870.973664] [ohm:3451639:0]        ib_iface.c:1059 UCX  ERROR ibv_create_cq(cqe=256) failed: Connection timed out


           ************************************************************
           *        Program running with 64 parallel MPI-processes    *
           *              working on a common directory               *
           ************************************************************
-------------------------------------------------------------------------------
                                 ORCA GUESS
                   Start orbitals & Density for SCF / CASSCF
-------------------------------------------------------------------------------

------------
SCF SETTINGS
------------
Hamiltonian:
 Density Functional     Method          .... DFT(GTOs)
  Functional kind                       .... Exchange-Correlation
  Functional name                       .... wB97M-V exchange-correlation functional
  Functional family                     .... Hybrid MGGA
  Functional refs                              
    [ 0] N. Mardirossian and M. Head-Gordon.,  J. Chem. Phys. 144, 214110 (2016), doi: 10.1063/1.4952647
  Fraction of HF Exchange (short range) .... 0.1500
  Fraction of HF Exchange (long range)  .... 1.0000
  Range separation parameter mu         .... 0.3000
  Functional external parameters        .... 17
    Parameter  0 _cx00      =  8.500000e-01 : u^00 coefficient for exchange
    Parameter  1 _cx01      =  1.007000e+00 : u^01 coefficient for exchange
    Parameter  2 _cx10      =  2.590000e-01 : u^10 coefficient for exchange
    Parameter  3 _css00     =  4.430000e-01 : u^00 coefficient for same-spin correlation
    Parameter  4 _css04     = -1.437000e+00 : u^04 coefficient for same-spin correlation
    Parameter  5 _css10     = -4.535000e+00 : u^10 coefficient for same-spin correlation
    Parameter  6 _css20     = -3.390000e+00 : u^20 coefficient for same-spin correlation
    Parameter  7 _css43     =  4.278000e+00 : u^43 coefficient for same-spin correlation
    Parameter  8 _cos00     =  1.000000e+00 : u^00 coefficient for opposite-spin correlation
    Parameter  9 _cos10     =  1.358000e+00 : u^10 coefficient for opposite-spin correlation
    Parameter 10 _cos20     =  2.924000e+00 : u^20 coefficient for opposite-spin correlation
    Parameter 11 _cos21     = -8.812000e+00 : u^21 coefficient for opposite-spin correlation
    Parameter 12 _cos60     = -1.390000e+00 : u^60 coefficient for opposite-spin correlation
    Parameter 13 _cos61     =  9.142000e+00 : u^61 coefficient for opposite-spin correlation
    Parameter 14 _alpha     =  1.000000e+00 : fraction of HF exchange
    Parameter 15 _beta      = -8.500000e-01 : fraction of short-range exchange
    Parameter 16 _omega     =  3.000000e-01 : range-separation constant
 Long-range corrected/Screened/Range-Separated Hybrid DFT is turned on
   Amount of maximum screened exact exchange              ....  0.850000
   Range separation parameter mu (erf(mu*r12)/r12)        ....  0.300000
 RI-approximation to the Coulomb term is turned on
   Number of AuxJ basis functions       .... 191
   RIJ-COSX (HFX calculated with COS-X)).... on


General Settings:
 Integral files         IntName         .... orca
 Hartree-Fock type      HFTyp           .... UHF
 Total Charge           Charge          ....    0
 Multiplicity           Mult            ....    3
 Number of Electrons    NEL             ....   24
 Basis Dimension        Dim             ....  182
 Nuclear Repulsion      ENuc            ....     68.4482236391 Eh

Convergence Acceleration:
 AO-DIIS                CNVDIIS         .... on
   Start iteration      DIISMaxIt       ....    12
   Startup error        DIISStart       ....  0.200000
   # of expansion vecs  DIISMaxEq       ....     5
   Bias factor          DIISBfac        ....   1.050
   Max. coefficient     DIISMaxC        ....  10.000
 MO-DIIS                CNVKDIIS        .... off
 Trust-Rad. Augm. Hess. CNVTRAH         .... auto
   Auto Start mean grad. ratio tolernc. ....  1.125000
   Auto Start start iteration           ....    50
   Auto Start num. interpolation iter.  ....    10
   Max. Number of Micro iterations      ....    24
   Max. Number of Macro iterations      .... Maxiter - #DIIS iter
   Number of Davidson start vectors     ....     2
   Converg. threshold    (grad. norm)   ....   1.000e-05
   Grad. Scal. Fac. for Micro threshold ....   0.100
   Minimum threshold for Micro iter.    ....   1.000e-02
   NR start threshold (gradient norm)   ....   1.000e-04
   Initial trust radius                 ....   0.400
   Minimum AH scaling param. (alpha)    ....   1.000
   Maximum AH scaling param. (alpha)    .... 1000.000
   Quad. conv. algorithm                .... NR
   White noise on init. David. guess    .... on
   Maximum white noise                  ....   0.010
   Pseudo random numbers                .... off
   Inactive MOs                         .... canonical
   Orbital update algorithm             .... Taylor
   Preconditioner                       .... Diag
   Full preconditioner red. dimension   ....   250
 SOSCF                  CNVSOSCF        .... on
   Start iteration      SOSCFMaxIt      ....   150
   Startup grad/error   SOSCFStart      ....  0.003300
   Hessian update       SOSCFHessUp     .... L-BFGS
 Level Shifting         CNVShift        .... on
   Level shift para.    LevelShift      ....    0.2500
   Turn off err/grad.   ShiftErr        ....    0.0010
 Zerner damping         CNVZerner       .... off
 Static damping         CNVDamp         .... on
   Fraction old density DampFac         ....    0.7000
   Max. Damping (<1)    DampMax         ....    0.9800
   Min. Damping (>=0)   DampMin         ....    0.0000
   Turn off err/grad.   DampErr         ....    0.1000

SCF Procedure:
 Maximum # iterations   MaxIter         ....   125
 SCF integral mode      SCFMode         .... Direct
   Integral package                     .... SHARK and LIBINT hybrid scheme
 Reset frequency        DirectResetFreq ....    20
 Integral Threshold     Thresh          ....  2.500e-11 Eh
 Primitive CutOff       TCut            ....  2.500e-12 Eh

Convergence Tolerance:
 Convergence Check Mode ConvCheckMode   .... Total+1el-Energy
 Convergence forced     ConvForced      .... 1
 Energy Change          TolE            ....  1.000e-08 Eh
 1-El. energy change                    ....  1.000e-05 Eh
 Orbital Gradient       TolG            ....  1.000e-05
 Orbital Rotation angle TolX            ....  1.000e-05
 DIIS Error             TolErr          ....  5.000e-07

------------------------------
INITIAL GUESS: MODEL POTENTIAL
------------------------------
Loading Hartree-Fock densities                     ... done
Calculating cut-offs                               ... done
Initializing the effective Hamiltonian             ... done
Setting up the integral package (SHARK)            ... done
Starting the Coulomb interaction                   ... done (   0.0 sec)
Making the grid                                    ... done (   0.0 sec)
Mapping shells                                     ... done
Starting the XC term evaluation                    ... done (   0.0 sec)
  promolecular density results
     # of electrons  =     23.997959974
     EX              =    -19.462078197
     EC              =     -0.765848129
     EX+EC           =    -20.227926326
Transforming the Hamiltonian                       ... done (   0.0 sec)
Diagonalizing the Hamiltonian                      ... done (   0.0 sec)
Back transforming the eigenvectors                 ... done (   0.0 sec)
Now organizing SCF variables                       ... done
                      ------------------
                      INITIAL GUESS DONE (   0.1 sec)
                      ------------------
             **** ENERGY FILE WAS UPDATED (orca.en.tmp) ****
Finished Guess after   1.8 sec
Maximum memory used throughout the entire GUESS-calculation: 9.5 MB
[1741610872.961076] [ohm:3451966:0]        ib_iface.c:1059 UCX  ERROR ibv_create_cq(cqe=256) failed: Connection timed out
[1741610872.996315] [ohm:3451965:0]        ib_iface.c:1059 UCX  ERROR ibv_create_cq(cqe=256) failed: Connection timed out
[1741610873.000242] [ohm:3451968:0]        ib_iface.c:1059 UCX  ERROR ibv_create_cq(cqe=256) failed: Connection timed out
[1741610873.008187] [ohm:3451964:0]        ib_iface.c:1059 UCX  ERROR ibv_create_cq(cqe=256) failed: Connection timed out
[1741610873.014368] [ohm:3451963:0]        ib_iface.c:1059 UCX  ERROR ibv_create_cq(cqe=256) failed: Connection timed out
[1741610873.016678] [ohm:3451994:0]        ib_iface.c:1059 UCX  ERROR ibv_create_cq(cqe=256) failed: Connection timed out
[1741610873.022360] [ohm:3451962:0]        ib_iface.c:1059 UCX  ERROR ibv_create_cq(cqe=256) failed: Connection timed out
[1741610873.024320] [ohm:3451973:0]        ib_iface.c:1059 UCX  ERROR ibv_create_cq(cqe=256) failed: Connection timed out
[1741610873.030486] [ohm:3451969:0]        ib_iface.c:1059 UCX  ERROR ibv_create_cq(cqe=256) failed: Connection timed out
[1741610873.031246] [ohm:3451974:0]        ib_iface.c:1059 UCX  ERROR ibv_create_cq(cqe=256) failed: Connection timed out
[1741610873.033926] [ohm:3451975:0]        ib_iface.c:1059 UCX  ERROR ibv_create_cq(cqe=256) failed: Connection timed out
[1741610873.036133] [ohm:3451971:0]        ib_iface.c:1059 UCX  ERROR ibv_create_cq(cqe=256) failed: Connection timed out
[1741610873.044839] [ohm:3451970:0]        ib_iface.c:1059 UCX  ERROR ibv_create_cq(cqe=256) failed: Connection timed out
[1741610873.050017] [ohm:3451977:0]        ib_iface.c:1059 UCX  ERROR ibv_create_cq(cqe=256) failed: Connection timed out
[1741610873.058607] [ohm:3452003:0]        ib_iface.c:1059 UCX  ERROR ibv_create_cq(cqe=256) failed: Connection timed out
[1741610873.061381] [ohm:3451967:0]        ib_iface.c:1059 UCX  ERROR ibv_create_cq(cqe=256) failed: Connection timed out
[1741610873.062830] [ohm:3452000:0]        ib_iface.c:1059 UCX  ERROR ibv_create_cq(cqe=256) failed: Connection timed out
[1741610873.065967] [ohm:3451993:0]        ib_iface.c:1059 UCX  ERROR ibv_create_cq(cqe=256) failed: Connection timed out
[1741610873.075644] [ohm:3451976:0]        ib_iface.c:1059 UCX  ERROR ibv_create_cq(cqe=256) failed: Connection timed out
[1741610873.076476] [ohm:3451972:0]        ib_iface.c:1059 UCX  ERROR ibv_create_cq(cqe=256) failed: Connection timed out
[1741610873.109230] [ohm:3452023:0]        ib_iface.c:1059 UCX  ERROR ibv_create_cq(cqe=256) failed: Connection timed out
[1741610873.113334] [ohm:3452106:0]        ib_iface.c:1059 UCX  ERROR ibv_create_cq(cqe=256) failed: Connection timed out
[1741610873.116446] [ohm:3452077:0]        ib_iface.c:1059 UCX  ERROR ibv_create_cq(cqe=256) failed: Connection timed out
[1741610873.117660] [ohm:3452072:0]        ib_iface.c:1059 UCX  ERROR ibv_create_cq(cqe=256) failed: Connection timed out
[1741610873.120946] [ohm:3452093:0]        ib_iface.c:1059 UCX  ERROR ibv_create_cq(cqe=256) failed: Connection timed out
[1741610873.121494] [ohm:3452040:0]        ib_iface.c:1059 UCX  ERROR ibv_create_cq(cqe=256) failed: Connection timed out
[1741610873.123031] [ohm:3452103:0]        ib_iface.c:1059 UCX  ERROR ibv_create_cq(cqe=256) failed: Connection timed out
[1741610873.123735] [ohm:3452016:0]        ib_iface.c:1059 UCX  ERROR ibv_create_cq(cqe=256) failed: Connection timed out
[1741610873.127855] [ohm:3452035:0]        ib_iface.c:1059 UCX  ERROR ibv_create_cq(cqe=256) failed: Connection timed out
[1741610873.136024] [ohm:3452074:0]        ib_iface.c:1059 UCX  ERROR ibv_create_cq(cqe=256) failed: Connection timed out
[1741610873.136899] [ohm:3452110:0]        ib_iface.c:1059 UCX  ERROR ibv_create_cq(cqe=256) failed: Connection timed out
[1741610873.137128] [ohm:3452099:0]        ib_iface.c:1059 UCX  ERROR ibv_create_cq(cqe=256) failed: Connection timed out
[1741610873.153721] [ohm:3451997:0]        ib_iface.c:1059 UCX  ERROR ibv_create_cq(cqe=256) failed: Connection timed out
[1741610873.166983] [ohm:3452025:0]        ib_iface.c:1059 UCX  ERROR ibv_create_cq(cqe=256) failed: Connection timed out
[1741610873.178198] [ohm:3452067:0]        ib_iface.c:1059 UCX  ERROR ibv_create_cq(cqe=256) failed: Connection timed out
[1741610873.178320] [ohm:3452108:0]        ib_iface.c:1059 UCX  ERROR ibv_create_cq(cqe=256) failed: Connection timed out
[1741610873.197128] [ohm:3452050:0]        ib_iface.c:1059 UCX  ERROR ibv_create_cq(cqe=256) failed: Connection timed out
[1741610873.197188] [ohm:3452058:0]        ib_iface.c:1059 UCX  ERROR ibv_create_cq(cqe=256) failed: Connection timed out
[1741610873.199406] [ohm:3451992:0]        ib_iface.c:1059 UCX  ERROR ibv_create_cq(cqe=256) failed: Connection timed out
[1741610873.199630] [ohm:3452056:0]        ib_iface.c:1059 UCX  ERROR ibv_create_cq(cqe=256) failed: Connection timed out
[1741610873.204660] [ohm:3452065:0]        ib_iface.c:1059 UCX  ERROR ibv_create_cq(cqe=256) failed: Connection timed out
[1741610873.218037] [ohm:3452021:0]        ib_iface.c:1059 UCX  ERROR ibv_create_cq(cqe=256) failed: Connection timed out
[1741610873.219943] [ohm:3452084:0]        ib_iface.c:1059 UCX  ERROR ibv_create_cq(cqe=256) failed: Connection timed out
[1741610873.223204] [ohm:3452032:0]        ib_iface.c:1059 UCX  ERROR ibv_create_cq(cqe=256) failed: Connection timed out
[1741610873.231379] [ohm:3452033:0]        ib_iface.c:1059 UCX  ERROR ibv_create_cq(cqe=256) failed: Connection timed out
[1741610873.235075] [ohm:3452029:0]        ib_iface.c:1059 UCX  ERROR ibv_create_cq(cqe=256) failed: Connection timed out
[1741610873.239048] [ohm:3452027:0]        ib_iface.c:1059 UCX  ERROR ibv_create_cq(cqe=256) failed: Connection timed out
[1741610873.239788] [ohm:3452026:0]        ib_iface.c:1059 UCX  ERROR ibv_create_cq(cqe=256) failed: Connection timed out
[1741610873.242308] [ohm:3452028:0]        ib_iface.c:1059 UCX  ERROR ibv_create_cq(cqe=256) failed: Connection timed out
[1741610873.246601] [ohm:3452053:0]        ib_iface.c:1059 UCX  ERROR ibv_create_cq(cqe=256) failed: Connection timed out
[1741610873.247998] [ohm:3452090:0]        ib_iface.c:1059 UCX  ERROR ibv_create_cq(cqe=256) failed: Connection timed out
[1741610873.251496] [ohm:3451995:0]        ib_iface.c:1059 UCX  ERROR ibv_create_cq(cqe=256) failed: Connection timed out
[1741610873.252758] [ohm:3451999:0]        ib_iface.c:1059 UCX  ERROR ibv_create_cq(cqe=256) failed: Connection timed out
[1741610873.257287] [ohm:3452047:0]        ib_iface.c:1059 UCX  ERROR ibv_create_cq(cqe=256) failed: Connection timed out
[1741610873.257744] [ohm:3452024:0]        ib_iface.c:1059 UCX  ERROR ibv_create_cq(cqe=256) failed: Connection timed out
[1741610873.257920] [ohm:3451996:0]        ib_iface.c:1059 UCX  ERROR ibv_create_cq(cqe=256) failed: Connection timed out
[1741610873.260892] [ohm:3452083:0]        ib_iface.c:1059 UCX  ERROR ibv_create_cq(cqe=256) failed: Connection timed out
[1741610873.262693] [ohm:3452063:0]        ib_iface.c:1059 UCX  ERROR ibv_create_cq(cqe=256) failed: Connection timed out
[1741610873.266244] [ohm:3452008:0]        ib_iface.c:1059 UCX  ERROR ibv_create_cq(cqe=256) failed: Connection timed out
[1741610873.266372] [ohm:3452041:0]        ib_iface.c:1059 UCX  ERROR ibv_create_cq(cqe=256) failed: Connection timed out
[1741610873.268120] [ohm:3452031:0]        ib_iface.c:1059 UCX  ERROR ibv_create_cq(cqe=256) failed: Connection timed out
[1741610873.270040] [ohm:3452096:0]        ib_iface.c:1059 UCX  ERROR ibv_create_cq(cqe=256) failed: Connection timed out
[1741610873.270703] [ohm:3452012:0]        ib_iface.c:1059 UCX  ERROR ibv_create_cq(cqe=256) failed: Connection timed out
[1741610873.271670] [ohm:3452030:0]        ib_iface.c:1059 UCX  ERROR ibv_create_cq(cqe=256) failed: Connection timed out


           ************************************************************
           *        Program running with 64 parallel MPI-processes    *
           *              working on a common directory               *
           ************************************************************

-------------------------------------------------------------------------------------------
                                      ORCA LEAN-SCF
                              memory conserving SCF solver
-------------------------------------------------------------------------------------------

----------------------------------------D-I-I-S--------------------------------------------
Iteration    Energy (Eh)           Delta-E    RMSDP     MaxDP     DIISErr   Damp  Time(sec)
-------------------------------------------------------------------------------------------
               ***  Starting incremental Fock matrix formation  ***
    1    -153.6985361754249197     0.00e+00  7.74e-04  1.93e-02  7.49e-02  0.700   0.3
    2    -153.7260939148143848    -2.76e-02  6.85e-04  1.61e-02  4.76e-02  0.700   0.3
                               ***Turning on AO-DIIS***
    3    -153.7414285414334927    -1.53e-02  5.65e-04  2.06e-02  2.69e-02  0.700   0.3
    4    -153.7510460283659199    -9.62e-03  1.43e-03  5.58e-02  1.91e-02  0.000   0.3
    5    -153.7739896077941921    -2.29e-02  1.57e-04  5.86e-03  7.10e-03  0.000   0.3
    6    -153.7746667301646539    -6.77e-04  1.05e-04  3.54e-03  4.04e-03  0.000   0.3
                              *** Initializing SOSCF ***
---------------------------------------S-O-S-C-F--------------------------------------
Iteration    Energy (Eh)           Delta-E    RMSDP     MaxDP     MaxGrad    Time(sec)
--------------------------------------------------------------------------------------
    7    -153.7750031990166804    -3.36e-04  6.12e-05  1.41e-03  3.06e-03     0.3
               *** Restarting incremental Fock matrix formation ***
    8    -153.7751539251415238    -1.51e-04  3.04e-05  7.97e-04  1.79e-03     0.3
    9    -153.7751961928525475    -4.23e-05  4.62e-05  1.24e-03  1.07e-03     0.3
   10    -153.7752188601057242    -2.27e-05  1.30e-05  4.55e-04  4.47e-04     0.3
   11    -153.7752213633665406    -2.50e-06  6.87e-06  2.54e-04  3.83e-04     0.2
   12    -153.7752234915034251    -2.13e-06  2.84e-05  1.27e-03  3.89e-04     0.2
   13    -153.7752285684332492    -5.08e-06  4.48e-05  2.13e-03  3.61e-04     0.3
   14    -153.7752340707151575    -5.50e-06  6.19e-05  2.85e-03  2.66e-04     0.3
   15    -153.7752397949527108    -5.72e-06  4.21e-05  1.87e-03  4.03e-04     0.3
   16    -153.7752429723286696    -3.18e-06  1.33e-05  4.44e-04  2.96e-04     0.3
   17    -153.7752439953413273    -1.02e-06  3.77e-06  1.44e-04  1.40e-04     0.3
   18    -153.7752442076092620    -2.12e-07  2.22e-06  9.46e-05  5.45e-05     0.2
   19    -153.7752442519467877    -4.43e-08  8.10e-07  2.44e-05  2.21e-05     0.2
   20    -153.7752442604328849    -8.49e-09  5.33e-07  1.73e-05  9.24e-06     0.2
                 **** Energy Check signals convergence ****

               *****************************************************
               *                     SUCCESS                       *
               *           SCF CONVERGED AFTER  20 CYCLES          *
               *****************************************************

Recomputing exchange energy using gridx3       ... done (    0.182 sec)
Old exchange energy                            :     -6.198621540 Eh
New exchange energy                            :     -6.198622494 Eh
Exchange energy change after final integration :     -0.000000954 Eh
Total energy after final integration           :   -153.775245215 Eh
             **** ENERGY FILE WAS UPDATED (orca.en.tmp) ****

----------------
TOTAL SCF ENERGY
----------------

Total Energy       :       -153.77524521455345 Eh           -4184.43715 eV

Components:
Nuclear Repulsion  :         68.44822363914473 Eh            1862.57086 eV
Electronic Energy  :       -222.22346789957760 Eh           -6047.00799 eV
One Electron Energy:       -343.50846481842029 Eh           -9347.34054 eV
Two Electron Energy:        121.28499691884271 Eh            3300.33255 eV

Virial components:
Potential Energy   :       -307.12575220493750 Eh           -8357.31660 eV
Kinetic Energy     :        153.35050699038408 Eh            4172.87944 eV
Virial Ratio       :          2.00276972168208

DFT components:
N(Alpha)           :       12.999982054024 electrons
N(Beta)            :       10.999979892670 electrons
N(Total)           :       23.999961946694 electrons
E(XC)              :      -14.703101860642 Eh       

---------------
SCF CONVERGENCE
---------------

  Last Energy change         ...    8.4861e-09  Tolerance :   1.0000e-08
  Last MAX-Density change    ...    1.7289e-05  Tolerance :   1.0000e-07
  Last RMS-Density change    ...    5.3252e-07  Tolerance :   5.0000e-09
  Last DIIS Error            ...    3.0620e-03  Tolerance :   5.0000e-07
  Last Orbital Gradient      ...    9.2398e-06  Tolerance :   1.0000e-05
  Last Orbital Rotation      ...    1.1262e-04  Tolerance :   1.0000e-05


----------------------
UHF SPIN CONTAMINATION
----------------------

Warning: in a DFT calculation there is little theoretical justification to 
         calculate <S**2> as in Hartree-Fock theory. We will do it anyways
         but you should keep in mind that the values have only limited relevance

Expectation value of <S**2>     :     2.008477
Ideal value S*(S+1) for S=1.0   :     2.000000
Deviation                       :     0.008477

----------------
ORBITAL ENERGIES
----------------
                 SPIN UP ORBITALS
  NO   OCC          E(Eh)            E(eV) 
   0   1.0000     -19.379947      -527.3552 
   1   1.0000     -10.413169      -283.3567 
   2   1.0000     -10.363676      -282.0100 
   3   1.0000      -1.152500       -31.3611 
   4   1.0000      -0.878817       -23.9138 
   5   1.0000      -0.741078       -20.1657 
   6   1.0000      -0.612297       -16.6614 
   7   1.0000      -0.589721       -16.0471 
   8   1.0000      -0.548704       -14.9310 
   9   1.0000      -0.514534       -14.0012 
  10   1.0000      -0.433712       -11.8019 
  11   1.0000      -0.415887       -11.3169 
  12   1.0000      -0.321692        -8.7537 
  13   0.0000       0.041434         1.1275 
  14   0.0000       0.060668         1.6509 
  15   0.0000       0.078786         2.1439 
  16   0.0000       0.087201         2.3729 
  17   0.0000       0.114506         3.1159 
  18   0.0000       0.125696         3.4204 
  19   0.0000       0.136978         3.7274 
  20   0.0000       0.138546         3.7700 
  21   0.0000       0.177023         4.8171 
  22   0.0000       0.184269         5.0142 
  23   0.0000       0.201543         5.4843 

                 SPIN DOWN ORBITALS
  NO   OCC          E(Eh)            E(eV) 
   0   1.0000     -19.355206      -526.6819 
   1   1.0000     -10.414621      -283.3963 
   2   1.0000     -10.350616      -281.6546 
   3   1.0000      -1.097445       -29.8630 
   4   1.0000      -0.844171       -22.9711 
   5   1.0000      -0.716701       -19.5024 
   6   1.0000      -0.590461       -16.0673 
   7   1.0000      -0.549651       -14.9568 
   8   1.0000      -0.521505       -14.1909 
   9   1.0000      -0.485761       -13.2182 
  10   1.0000      -0.381444       -10.3796 
  11   0.0000      -0.044663        -1.2153 
  12   0.0000      -0.001165        -0.0317 
  13   0.0000       0.040483         1.1016 
  14   0.0000       0.060685         1.6513 
  15   0.0000       0.078514         2.1365 
  16   0.0000       0.089129         2.4253 
  17   0.0000       0.115335         3.1384 
  18   0.0000       0.126233         3.4350 
  19   0.0000       0.140774         3.8307 
  20   0.0000       0.142199         3.8694 
  21   0.0000       0.180080         4.9002 
*Only the first 10 virtual orbitals were printed.

                    ********************************
                    * MULLIKEN POPULATION ANALYSIS *
                    ********************************

--------------------------------------------
MULLIKEN ATOMIC CHARGES AND SPIN POPULATIONS
--------------------------------------------
   0 O :   -0.319910    0.951033
   1 C :    0.057171   -0.001657
   2 C :   -0.646107    0.829844
   3 H :    0.164680    0.136645
   4 H :    0.220320    0.037888
   5 H :    0.267286    0.021099
   6 H :    0.256561    0.025149
Sum of atomic charges         :   -0.0000000
Sum of atomic spin populations:    2.0000000

-----------------------------------------------------
MULLIKEN REDUCED ORBITAL CHARGES AND SPIN POPULATIONS
-----------------------------------------------------
CHARGE
  0 O s       :     3.983267  s :     3.983267
      pz      :     1.477518  p :     4.317761
      px      :     1.263413
      py      :     1.576830
      dz2     :     0.003418  d :     0.017767
      dxz     :     0.005047
      dyz     :     0.005983
      dx2y2   :     0.002206
      dxy     :     0.001114
      f0      :     0.000164  f :     0.001114
      f+1     :     0.000154
      f-1     :     0.000404
      f+2     :     0.000180
      f-2     :     0.000143
      f+3     :     0.000022
      f-3     :     0.000048

  1 C s       :     3.183223  s :     3.183223
      pz      :     0.715107  p :     2.611764
      px      :     0.918055
      py      :     0.978602
      dz2     :     0.063509  d :     0.137797
      dxz     :     0.021243
      dyz     :     0.009835
      dx2y2   :     0.052169
      dxy     :    -0.008959
      f0      :     0.002480  f :     0.010046
      f+1     :     0.001412
      f-1     :     0.001690
      f+2     :     0.001604
      f-2     :     0.001670
      f+3     :     0.000566
      f-3     :     0.000625

  2 C s       :     3.604768  s :     3.604768
      pz      :     0.966459  p :     3.025347
      px      :     0.940360
      py      :     1.118529
      dz2     :     0.011233  d :     0.011930
      dxz     :     0.007160
      dyz     :    -0.003015
      dx2y2   :    -0.001750
      dxy     :    -0.001698
      f0      :     0.000563  f :     0.004061
      f+1     :     0.000927
      f-1     :     0.000318
      f+2     :     0.000636
      f-2     :     0.000831
      f+3     :     0.000420
      f-3     :     0.000366

  3 H s       :     0.798350  s :     0.798350
      pz      :     0.009267  p :     0.034532
      px      :     0.019167
      py      :     0.006098
      dz2     :     0.000308  d :     0.002438
      dxz     :     0.000829
      dyz     :     0.000116
      dx2y2   :     0.000593
      dxy     :     0.000592

  4 H s       :     0.738877  s :     0.738877
      pz      :     0.013458  p :     0.038102
      px      :    -0.000034
      py      :     0.024677
      dz2     :     0.000321  d :     0.002702
      dxz     :     0.000162
      dyz     :     0.000912
      dx2y2   :     0.000588
      dxy     :     0.000719

  5 H s       :     0.691768  s :     0.691768
      pz      :     0.017883  p :     0.038629
      px      :     0.015258
      py      :     0.005488
      dz2     :     0.000540  d :     0.002317
      dxz     :     0.000378
      dyz     :     0.000382
      dx2y2   :     0.000634
      dxy     :     0.000383

  6 H s       :     0.700031  s :     0.700031
      pz      :     0.018123  p :     0.041057
      px      :     0.014052
      py      :     0.008882
      dz2     :     0.000194  d :     0.002351
      dxz     :     0.000046
      dyz     :     0.000858
      dx2y2   :     0.000430
      dxy     :     0.000822


SPIN
  0 O s       :     0.005317  s :     0.005317
      pz      :     0.080152  p :     0.949947
      px      :     0.686291
      py      :     0.183503
      dz2     :     0.000082  d :    -0.004085
      dxz     :    -0.003044
      dyz     :    -0.000230
      dx2y2   :    -0.000662
      dxy     :    -0.000231
      f0      :    -0.000029  f :    -0.000147
      f+1     :    -0.000012
      f-1     :    -0.000057
      f+2     :    -0.000034
      f-2     :    -0.000016
      f+3     :     0.000001
      f-3     :     0.000000

  1 C s       :     0.013656  s :     0.013656
      pz      :    -0.046795  p :    -0.086255
      px      :    -0.040263
      py      :     0.000802
      dz2     :     0.020993  d :     0.067971
      dxz     :     0.012027
      dyz     :     0.001692
      dx2y2   :     0.032693
      dxy     :     0.000567
      f0      :     0.000316  f :     0.002971
      f+1     :     0.001058
      f-1     :     0.000352
      f+2     :     0.000280
      f-2     :     0.000559
      f+3     :     0.000176
      f-3     :     0.000231

  2 C s       :    -0.042727  s :    -0.042727
      pz      :     0.525858  p :     0.882353
      px      :     0.348688
      py      :     0.007807
      dz2     :    -0.003112  d :    -0.008700
      dxz     :     0.000042
      dyz     :    -0.002785
      dx2y2   :    -0.002353
      dxy     :    -0.000492
      f0      :    -0.000224  f :    -0.001082
      f+1     :    -0.000197
      f-1     :    -0.000105
      f+2     :    -0.000095
      f-2     :    -0.000318
      f+3     :    -0.000008
      f-3     :    -0.000134

  3 H s       :     0.128004  s :     0.128004
      pz      :     0.002944  p :     0.008499
      px      :     0.004717
      py      :     0.000838
      dz2     :     0.000036  d :     0.000141
      dxz     :     0.000026
      dyz     :     0.000011
      dx2y2   :     0.000049
      dxy     :     0.000020

  4 H s       :     0.035434  s :     0.035434
      pz      :     0.001107  p :     0.002468
      px      :    -0.003188
      py      :     0.004549
      dz2     :    -0.000013  d :    -0.000013
      dxz     :     0.000023
      dyz     :    -0.000006
      dx2y2   :     0.000011
      dxy     :    -0.000029

  5 H s       :    -0.001975  s :    -0.001975
      pz      :     0.013379  p :     0.022023
      px      :     0.007442
      py      :     0.001202
      dz2     :     0.000429  d :     0.001050
      dxz     :     0.000032
      dyz     :     0.000215
      dx2y2   :     0.000191
      dxy     :     0.000184

  6 H s       :     0.000892  s :     0.000892
      pz      :     0.014143  p :     0.023202
      px      :     0.007962
      py      :     0.001098
      dz2     :     0.000014  d :     0.001054
      dxz     :     0.000007
      dyz     :     0.000587
      dx2y2   :     0.000025
      dxy     :     0.000421



                     *******************************
                     * LOEWDIN POPULATION ANALYSIS *
                     *******************************

-------------------------------------------
LOEWDIN ATOMIC CHARGES AND SPIN POPULATIONS
-------------------------------------------
   0 O :    0.012466    0.901317
   1 C :   -0.216915    0.197505
   2 C :    0.248142    0.635198
   3 H :    0.074308    0.092632
   4 H :    0.002884    0.015026
   5 H :   -0.072869    0.085258
   6 H :   -0.048016    0.073064

----------------------------------------------------
LOEWDIN REDUCED ORBITAL CHARGES AND SPIN POPULATIONS
----------------------------------------------------
CHARGE
  0 O s       :     3.499857  s :     3.499857
      pz      :     1.516311  p :     4.210950
      px      :     1.178068
      py      :     1.516570
      dz2     :     0.076535  d :     0.273194
      dxz     :     0.074532
      dyz     :     0.065186
      dx2y2   :     0.037482
      dxy     :     0.019459
      f0      :     0.000787  f :     0.003534
      f+1     :     0.000531
      f-1     :     0.000917
      f+2     :     0.000555
      f-2     :     0.000508
      f+3     :     0.000095
      f-3     :     0.000141

  1 C s       :     2.663570  s :     2.663570
      pz      :     0.814668  p :     2.588830
      px      :     0.892326
      py      :     0.881836
      dz2     :     0.238951  d :     0.883208
      dxz     :     0.163613
      dyz     :     0.198896
      dx2y2   :     0.186591
      dxy     :     0.095157
      f0      :     0.017737  f :     0.081307
      f+1     :     0.009269
      f-1     :     0.018561
      f+2     :     0.011842
      f-2     :     0.012792
      f+3     :     0.004991
      f-3     :     0.006115

  2 C s       :     2.715079  s :     2.715079
      pz      :     0.789245  p :     2.596326
      px      :     0.841826
      py      :     0.965255
      dz2     :     0.075462  d :     0.414710
      dxz     :     0.074403
      dyz     :     0.083456
      dx2y2   :     0.101671
      dxy     :     0.079717
      f0      :     0.003040  f :     0.025743
      f+1     :     0.005215
      f-1     :     0.002040
      f+2     :     0.003999
      f-2     :     0.004929
      f+3     :     0.003474
      f-3     :     0.003046

  3 H s       :     0.658925  s :     0.658925
      pz      :     0.061503  p :     0.241816
      px      :     0.116540
      py      :     0.063773
      dz2     :     0.002924  d :     0.024952
      dxz     :     0.006996
      dyz     :     0.000991
      dx2y2   :     0.007446
      dxy     :     0.006595

  4 H s       :     0.692940  s :     0.692940
      pz      :     0.069853  p :     0.272163
      px      :     0.071858
      py      :     0.130452
      dz2     :     0.003660  d :     0.032012
      dxz     :     0.001610
      dyz     :     0.009595
      dx2y2   :     0.008384
      dxy     :     0.008763

  5 H s       :     0.735177  s :     0.735177
      pz      :     0.099210  p :     0.303790
      px      :     0.096187
      py      :     0.108393
      dz2     :     0.006448  d :     0.033902
      dxz     :     0.005424
      dyz     :     0.007183
      dx2y2   :     0.007713
      dxy     :     0.007134

  6 H s       :     0.721198  s :     0.721198
      pz      :     0.082528  p :     0.294391
      px      :     0.075253
      py      :     0.136610
      dz2     :     0.003247  d :     0.032426
      dxz     :     0.000352
      dyz     :     0.009962
      dx2y2   :     0.008942
      dxy     :     0.009922


SPIN
  0 O s       :     0.016575  s :     0.016575
      pz      :     0.072339  p :     0.866805
      px      :     0.626686
      py      :     0.167780
      dz2     :    -0.000351  d :     0.017922
      dxz     :     0.010101
      dyz     :    -0.000052
      dx2y2   :     0.007266
      dxy     :     0.000956
      f0      :    -0.000003  f :     0.000015
      f+1     :     0.000071
      f-1     :    -0.000088
      f+2     :    -0.000032
      f-2     :     0.000011
      f+3     :     0.000023
      f-3     :     0.000033

  1 C s       :    -0.004075  s :    -0.004075
      pz      :    -0.015513  p :    -0.020858
      px      :    -0.003238
      py      :    -0.002106
      dz2     :     0.055729  d :     0.199601
      dxz     :     0.052568
      dyz     :     0.005029
      dx2y2   :     0.082512
      dxy     :     0.003764
      f0      :     0.003292  f :     0.022836
      f+1     :     0.006934
      f-1     :     0.003305
      f+2     :     0.001727
      f-2     :     0.004211
      f+3     :     0.001605
      f-3     :     0.001762

  2 C s       :     0.012447  s :     0.012447
      pz      :     0.366284  p :     0.625213
      px      :     0.247072
      py      :     0.011856
      dz2     :     0.001201  d :    -0.001878
      dxz     :    -0.002270
      dyz     :    -0.002156
      dx2y2   :     0.003203
      dxy     :    -0.001856
      f0      :    -0.000274  f :    -0.000585
      f+1     :     0.000279
      f-1     :    -0.000155
      f+2     :     0.000242
      f-2     :    -0.000455
      f+3     :     0.000033
      f-3     :    -0.000255

  3 H s       :     0.080671  s :     0.080671
      pz      :     0.007564  p :     0.012370
      px      :     0.005202
      py      :    -0.000396
      dz2     :     0.000011  d :    -0.000409
      dxz     :    -0.000220
      dyz     :     0.000021
      dx2y2   :    -0.000126
      dxy     :    -0.000095

  4 H s       :     0.015140  s :     0.015140
      pz      :    -0.000674  p :     0.000306
      px      :    -0.001424
      py      :     0.002404
      dz2     :    -0.000178  d :    -0.000419
      dxz     :     0.000141
      dyz     :    -0.000219
      dx2y2   :    -0.000097
      dxy     :    -0.000067

  5 H s       :    -0.010619  s :    -0.010619
      pz      :     0.048679  p :     0.084266
      px      :     0.033332
      py      :     0.002255
      dz2     :     0.004791  d :     0.011611
      dxz     :     0.000213
      dyz     :     0.002777
      dx2y2   :     0.001398
      dxy     :     0.002432

  6 H s       :    -0.012085  s :    -0.012085
      pz      :     0.041968  p :     0.074330
      px      :     0.028038
      py      :     0.004323
      dz2     :     0.000319  d :     0.010820
      dxz     :     0.000021
      dyz     :     0.005943
      dx2y2   :     0.000464
      dxy     :     0.004072



                      *****************************
                      * MAYER POPULATION ANALYSIS *
                      *****************************

  NA   - Mulliken gross atomic population
  ZA   - Total nuclear charge
  QA   - Mulliken gross atomic charge
  VA   - Mayer's total valence
  BVA  - Mayer's bonded valence
  FA   - Mayer's free valence

  ATOM       NA         ZA         QA         VA         BVA        FA
  0 O      8.3199     8.0000    -0.3199     1.8137     1.0209     0.7928
  1 C      5.9428     6.0000     0.0572     3.4475     3.4335     0.0140
  2 C      6.6461     6.0000    -0.6461     3.4935     2.7694     0.7242
  3 H      0.8353     1.0000     0.1647     1.0181     1.0013     0.0168
  4 H      0.7797     1.0000     0.2203     1.0078     1.0068     0.0010
  5 H      0.7327     1.0000     0.2673     0.9068     0.9068     0.0000
  6 H      0.7434     1.0000     0.2566     0.9439     0.9436     0.0003

  Mayer bond orders larger than 0.100000
B(  0-O ,  1-C ) :   0.8154 B(  1-C ,  2-C ) :   0.7959 B(  1-C ,  3-H ) :   0.9391 
B(  1-C ,  4-H ) :   0.9559 B(  2-C ,  5-H ) :   0.9312 B(  2-C ,  6-H ) :   0.9658 


-------
TIMINGS
-------

Total SCF time: 0 days 0 hours 0 min 7 sec 

Total time                  ....       7.593 sec
Sum of individual times     ....       7.567 sec  ( 99.7%)

SCF preparation             ....       1.804 sec  ( 23.8%)
Fock matrix formation       ....       4.487 sec  ( 59.1%)
  Startup                   ....       0.089 sec  (  2.0% of F)
  Split-RI-J                ....       0.460 sec  ( 10.2% of F)
  Chain of spheres X        ....       2.518 sec  ( 56.1% of F)
  XC integration            ....       1.137 sec  ( 25.3% of F)
    XC Preparation          ....       0.000 sec  (  0.0% of XC)
    Basis function eval.    ....       0.057 sec  (  5.0% of XC)
    Density eval.           ....       0.204 sec  ( 17.9% of XC)
    XC-Functional eval.     ....       0.015 sec  (  1.3% of XC)
    XC-Potential eval.      ....       0.262 sec  ( 23.0% of XC)
Diagonalization             ....       0.000 sec  (  0.0%)
Density matrix formation    ....       0.158 sec  (  2.1%)
Total Energy calculation    ....       0.140 sec  (  1.8%)
Population analysis         ....       0.037 sec  (  0.5%)
Orbital Transformation      ....       0.088 sec  (  1.2%)
[...]
[1741610891.438238] [ohm:3453145:0]        ib_iface.c:1059 UCX  ERROR ibv_create_cq(cqe=256) failed: Connection timed out
[1741610891.438646] [ohm:3453169:0]        ib_iface.c:1059 UCX  ERROR ibv_create_cq(cqe=256) failed: Connection timed out
[1741610891.437879] [ohm:3453176:0]        ib_iface.c:1059 UCX  ERROR ibv_create_cq(cqe=256) failed: Connection timed out
[1741610891.439313] [ohm:3453161:0]        ib_iface.c:1059 UCX  ERROR ibv_create_cq(cqe=256) failed: Connection timed out
[1741610891.439439] [ohm:3453163:0]        ib_iface.c:1059 UCX  ERROR ibv_create_cq(cqe=256) failed: Connection timed out
[1741610891.439685] [ohm:3453068:0]        ib_iface.c:1059 UCX  ERROR ibv_create_cq(cqe=256) failed: Connection timed out
[1741610891.440465] [ohm:3453158:0]        ib_iface.c:1059 UCX  ERROR ibv_create_cq(cqe=256) failed: Connection timed out
[1741610891.440506] [ohm:3453084:0]        ib_iface.c:1059 UCX  ERROR ibv_create_cq(cqe=256) failed: Connection timed out
[1741610891.441137] [ohm:3453090:0]        ib_iface.c:1059 UCX  ERROR ibv_create_cq(cqe=256) failed: Connection timed out
[1741610891.442238] [ohm:3453091:0]        ib_iface.c:1059 UCX  ERROR ibv_create_cq(cqe=256) failed: Connection timed out


           ************************************************************
           *        Program running with 64 parallel MPI-processes    *
           *              working on a common directory               *
           ************************************************************

------------------------------------------------------------------------------
                              ORCA PROPERTY CALCULATIONS
------------------------------------------------------------------------------

GBWName                                 ... orca.gbw
Number of atoms                         ...      7
Number of basis functions               ...    182
Max core memory                         ...   1024 MB

Electric properties:
Dipole moment                           ... YES
Quadrupole moment                       ...  NO
Static polarizability (Dipole/Dipole)   ...  NO
Static polarizability (Dipole/Quad.)    ...  NO
Static polarizability (Quad./Quad.)     ...  NO
Static polarizability (Velocity)        ...  NO

Atomic electric properties:
Dipole moment                           ...  NO
Quadrupole moment                       ...  NO
Static polarizability                   ...  NO

Choice of electric origin               ... Center of mass
Position of electric origin             ...     0.774395     0.121323     0.135454

General magnetic properties:
Magnetizability                         ...  NO

EPR properties:
g-Tensor (aka g-matrix)                 ...  NO
Zero-Field splitting spin-orbit         ...  NO
Zero-field splitting spin-spin          ...  NO
Hyperfine couplings                     ...  NO (   0 nuclei)
Quadrupole couplings                    ...  NO (   0 nuclei)
Contact density                         ...  NO (   0 nuclei)

NMR properties:
Chemical shifts                         ...  NO (   0 nuclei)
Spin-rotation constants                 ...  NO (   0 nuclei)
Spin-spin couplings                     ...  NO (   0 nuclei,    0 pairs)

Choice of magnetic origin               ... GIAO
Position of magnetic origin             ...     0.000000     0.000000     0.000000

Properties with geometric perturbations:
SCF Hessian                             ...  NO
IR spectrum                             ...  NO
VCD spectrum                            ...  NO
X-ray spectroscopy properties:
SCF XES/XAS/RIXS spectra                ...  NO


-------------
DIPOLE MOMENT
-------------

Method             : SCF
Type of density    : Electron Density
Multiplicity       :   3
Irrep              :   0
Energy             :  -153.7752452145534505 Eh
Relativity type    : 
Basis              : AO
                                X                 Y                 Z
Electronic contribution:     -0.235594691       0.638509102       2.028519336
Nuclear contribution   :      0.071777369      -1.042654225      -2.707568033
                        -----------------------------------------
Total Dipole Moment    :     -0.163817323      -0.404145123      -0.679048697
                        -----------------------------------------
Magnitude (a.u.)       :      0.807017056
Magnitude (Debye)      :      2.051274339



--------------------
Rotational spectrum 
--------------------
 
Rotational constants in cm-1:             1.278763             0.387763             0.324681 
Rotational constants in MHz :         38336.337633         11624.844646          9733.683166 

Dipole components along the rotational axes: 
x,y,z [a.u.] :    -0.589148     0.538391    -0.119653 
x,y,z [Debye]:    -1.497495     1.368480    -0.304134 

 

-------------
DIPOLE MOMENT
-------------

Method             : TDA/CIS
Type of density    : Electron Density
Level              : Relaxed density
State              :   2
Multiplicity       :   3
Irrep              :   0
Energy             :     0.0000000000000000 Eh
Relativity type    : 
Basis              : AO
                                X                 Y                 Z
Electronic contribution:     -0.273543022       0.597130669       2.087836330
Nuclear contribution   :      0.071777369      -1.042654225      -2.707568033
                        -----------------------------------------
Total Dipole Moment    :     -0.201765653      -0.445523556      -0.619731703
                        -----------------------------------------
Magnitude (a.u.)       :      0.789473243
Magnitude (Debye)      :      2.006681510



--------------------
Rotational spectrum 
--------------------
 
Rotational constants in cm-1:             1.278763             0.387763             0.324681 
Rotational constants in MHz :         38336.337633         11624.844646          9733.683166 

Dipole components along the rotational axes: 
x,y,z [a.u.] :    -0.524757     0.582138    -0.094939 
x,y,z [Debye]:    -1.333827     1.479677    -0.241317 

 

Dipole moment calculation done in   0.0 sec 

Maximum memory used throughout the entire PROP-calculation: 7.4 MB
[1741610893.100714] [ohm:3453374:0]        ib_iface.c:1059 UCX  ERROR ibv_create_cq(cqe=256) failed: Connection timed out
[1741610893.108832] [ohm:3453381:0]        ib_iface.c:1059 UCX  ERROR ibv_create_cq(cqe=256) failed: Connection timed out
[1741610893.111490] [ohm:3453373:0]        ib_iface.c:1059 UCX  ERROR ibv_create_cq(cqe=256) failed: Connection timed out
[1741610893.120525] [ohm:3453375:0]        ib_iface.c:1059 UCX  ERROR ibv_create_cq(cqe=256) failed: Connection timed out
[1741610893.128204] [ohm:3453383:0]        ib_iface.c:1059 UCX  ERROR ibv_create_cq(cqe=256) failed: Connection timed out
[1741610893.136651] [ohm:3453369:0]        ib_iface.c:1059 UCX  ERROR ibv_create_cq(cqe=256) failed: Connection timed out
[1741610893.155435] [ohm:3453371:0]        ib_iface.c:1059 UCX  ERROR ibv_create_cq(cqe=256) failed: Connection timed out
[1741610893.160808] [ohm:3453370:0]        ib_iface.c:1059 UCX  ERROR ibv_create_cq(cqe=256) failed: Connection timed out
[1741610893.168635] [ohm:3453378:0]        ib_iface.c:1059 UCX  ERROR ibv_create_cq(cqe=256) failed: Connection timed out
[1741610893.169714] [ohm:3453368:0]        ib_iface.c:1059 UCX  ERROR ibv_create_cq(cqe=256) failed: Connection timed out
[1741610893.170321] [ohm:3453385:0]        ib_iface.c:1059 UCX  ERROR ibv_create_cq(cqe=256) failed: Connection timed out
[1741610893.175818] [ohm:3453388:0]        ib_iface.c:1059 UCX  ERROR ibv_create_cq(cqe=256) failed: Connection timed out
[1741610893.177747] [ohm:3453389:0]        ib_iface.c:1059 UCX  ERROR ibv_create_cq(cqe=256) failed: Connection timed out
[1741610893.188052] [ohm:3453487:0]        ib_iface.c:1059 UCX  ERROR ibv_create_cq(cqe=256) failed: Connection timed out
[1741610893.194607] [ohm:3453423:0]        ib_iface.c:1059 UCX  ERROR ibv_create_cq(cqe=256) failed: Connection timed out
[1741610893.213648] [ohm:3453379:0]        ib_iface.c:1059 UCX  ERROR ibv_create_cq(cqe=256) failed: Connection timed out
[1741610893.215819] [ohm:3453372:0]        ib_iface.c:1059 UCX  ERROR ibv_create_cq(cqe=256) failed: Connection timed out
[1741610893.216864] [ohm:3453393:0]        ib_iface.c:1059 UCX  ERROR ibv_create_cq(cqe=256) failed: Connection timed out
[1741610893.218901] [ohm:3453390:0]        ib_iface.c:1059 UCX  ERROR ibv_create_cq(cqe=256) failed: Connection timed out
[1741610893.220745] [ohm:3453386:0]        ib_iface.c:1059 UCX  ERROR ibv_create_cq(cqe=256) failed: Connection timed out
[1741610893.221862] [ohm:3453391:0]        ib_iface.c:1059 UCX  ERROR ibv_create_cq(cqe=256) failed: Connection timed out
[1741610893.226953] [ohm:3453484:0]        ib_iface.c:1059 UCX  ERROR ibv_create_cq(cqe=256) failed: Connection timed out
[1741610893.227115] [ohm:3453490:0]        ib_iface.c:1059 UCX  ERROR ibv_create_cq(cqe=256) failed: Connection timed out
[1741610893.270777] [ohm:3453382:0]        ib_iface.c:1059 UCX  ERROR ibv_create_cq(cqe=256) failed: Connection timed out
[1741610893.275481] [ohm:3453396:0]        ib_iface.c:1059 UCX  ERROR ibv_create_cq(cqe=256) failed: Connection timed out
[1741610893.278051] [ohm:3453377:0]        ib_iface.c:1059 UCX  ERROR ibv_create_cq(cqe=256) failed: Connection timed out
[1741610893.281874] [ohm:3453380:0]        ib_iface.c:1059 UCX  ERROR ibv_create_cq(cqe=256) failed: Connection timed out
[1741610893.297392] [ohm:3453474:0]        ib_iface.c:1059 UCX  ERROR ibv_create_cq(cqe=256) failed: Connection timed out
[1741610893.309749] [ohm:3453443:0]        ib_iface.c:1059 UCX  ERROR ibv_create_cq(cqe=256) failed: Connection timed out
[1741610893.309961] [ohm:3453422:0]        ib_iface.c:1059 UCX  ERROR ibv_create_cq(cqe=256) failed: Connection timed out
[1741610893.315491] [ohm:3453410:0]        ib_iface.c:1059 UCX  ERROR ibv_create_cq(cqe=256) failed: Connection timed out
[1741610893.324396] [ohm:3453427:0]        ib_iface.c:1059 UCX  ERROR ibv_create_cq(cqe=256) failed: Connection timed out
[1741610893.324455] [ohm:3453505:0]        ib_iface.c:1059 UCX  ERROR ibv_create_cq(cqe=256) failed: Connection timed out
[1741610893.326505] [ohm:3453519:0]        ib_iface.c:1059 UCX  ERROR ibv_create_cq(cqe=256) failed: Connection timed out
[1741610893.341905] [ohm:3453459:0]        ib_iface.c:1059 UCX  ERROR ibv_create_cq(cqe=256) failed: Connection timed out
[1741610893.346469] [ohm:3453404:0]        ib_iface.c:1059 UCX  ERROR ibv_create_cq(cqe=256) failed: Connection timed out
[1741610893.355417] [ohm:3453428:0]        ib_iface.c:1059 UCX  ERROR ibv_create_cq(cqe=256) failed: Connection timed out
[1741610893.359078] [ohm:3453512:0]        ib_iface.c:1059 UCX  ERROR ibv_create_cq(cqe=256) failed: Connection timed out
[1741610893.364711] [ohm:3453472:0]        ib_iface.c:1059 UCX  ERROR ibv_create_cq(cqe=256) failed: Connection timed out
[1741610893.368354] [ohm:3453394:0]        ib_iface.c:1059 UCX  ERROR ibv_create_cq(cqe=256) failed: Connection timed out
[1741610893.372800] [ohm:3453482:0]        ib_iface.c:1059 UCX  ERROR ibv_create_cq(cqe=256) failed: Connection timed out
[1741610893.375767] [ohm:3453469:0]        ib_iface.c:1059 UCX  ERROR ibv_create_cq(cqe=256) failed: Connection timed out
[1741610893.377480] [ohm:3453418:0]        ib_iface.c:1059 UCX  ERROR ibv_create_cq(cqe=256) failed: Connection timed out
[1741610893.377470] [ohm:3453458:0]        ib_iface.c:1059 UCX  ERROR ibv_create_cq(cqe=256) failed: Connection timed out
[1741610893.379282] [ohm:3453450:0]        ib_iface.c:1059 UCX  ERROR ibv_create_cq(cqe=256) failed: Connection timed out
[1741610893.382277] [ohm:3453445:0]        ib_iface.c:1059 UCX  ERROR ibv_create_cq(cqe=256) failed: Connection timed out
[1741610893.399924] [ohm:3453477:0]        ib_iface.c:1059 UCX  ERROR ibv_create_cq(cqe=256) failed: Connection timed out
[1741610893.403899] [ohm:3453468:0]        ib_iface.c:1059 UCX  ERROR ibv_create_cq(cqe=256) failed: Connection timed out
[1741610893.404891] [ohm:3453492:0]        ib_iface.c:1059 UCX  ERROR ibv_create_cq(cqe=256) failed: Connection timed out
[1741610893.411209] [ohm:3453478:0]        ib_iface.c:1059 UCX  ERROR ibv_create_cq(cqe=256) failed: Connection timed out
[1741610893.411642] [ohm:3453437:0]        ib_iface.c:1059 UCX  ERROR ibv_create_cq(cqe=256) failed: Connection timed out
[1741610893.418774] [ohm:3453400:0]        ib_iface.c:1059 UCX  ERROR ibv_create_cq(cqe=256) failed: Connection timed out
[1741610893.419605] [ohm:3453508:0]        ib_iface.c:1059 UCX  ERROR ibv_create_cq(cqe=256) failed: Connection timed out
[1741610893.425390] [ohm:3453424:0]        ib_iface.c:1059 UCX  ERROR ibv_create_cq(cqe=256) failed: Connection timed out
[1741610893.425797] [ohm:3453462:0]        ib_iface.c:1059 UCX  ERROR ibv_create_cq(cqe=256) failed: Connection timed out
[1741610893.425845] [ohm:3453387:0]        ib_iface.c:1059 UCX  ERROR ibv_create_cq(cqe=256) failed: Connection timed out
[1741610893.426959] [ohm:3453384:0]        ib_iface.c:1059 UCX  ERROR ibv_create_cq(cqe=256) failed: Connection timed out
[1741610893.427095] [ohm:3453453:0]        ib_iface.c:1059 UCX  ERROR ibv_create_cq(cqe=256) failed: Connection timed out
[1741610893.430782] [ohm:3453499:0]        ib_iface.c:1059 UCX  ERROR ibv_create_cq(cqe=256) failed: Connection timed out
[1741610893.431409] [ohm:3453476:0]        ib_iface.c:1059 UCX  ERROR ibv_create_cq(cqe=256) failed: Connection timed out
[1741610893.432952] [ohm:3453432:0]        ib_iface.c:1059 UCX  ERROR ibv_create_cq(cqe=256) failed: Connection timed out
[1741610893.434115] [ohm:3453376:0]        ib_iface.c:1059 UCX  ERROR ibv_create_cq(cqe=256) failed: Connection timed out
[1741610893.434636] [ohm:3453480:0]        ib_iface.c:1059 UCX  ERROR ibv_create_cq(cqe=256) failed: Connection timed out
[1741610893.434586] [ohm:3453392:0]        ib_iface.c:1059 UCX  ERROR ibv_create_cq(cqe=256) failed: Connection timed out

--------------------------------
SUGGESTED CITATIONS FOR THIS RUN
--------------------------------

Below you find a list of papers that are relevant to this ORCA run
We neither can nor want to force you to cite these papers, but we appreciate if you do
You receive ORCA, which is the product of decades of hard work by many enthusiastic individuals, for free
The only thing we kindly ask in return is that you cite our papers,
We deeply appreciate it, if you show your appreciation for ORCA by not just citing the generic ORCA reference.

Please note that relegating all ORCA citations to the supporting information does *not* help us.
SI sections are not indexed - citations you put there will not count into any citation statistics
But we need these citations in order to attract the funding resources that allow us to do what we are doing

Therefore, if you are a happy ORCA user, please consider citing a few of the papers listed below in the main body of your paper

In addition to the list printed below, the program has created the file orca.bibtex that contains the list in bibtex format
You can import this file easily into all common literature databanks and citation aid programs


List of essential papers. We consider these as the minimum necessary citations

  1. Neese,F.
     Software update: the ORCA program system, version 5.0
     WIRES Comput. Molec. Sci., 2022 12(1)e1606
     doi.org/10.1002/wcms.1606

List of papers to cite with high priority. The work reported in these papers was absolutely
necessary for this run to complete.
Our perspective: the developers of density functionals and basis sets usually get cited in chemistry papers
Good! But without the algorithms to do something with them, the functionals or basis sets would not do anything.
Hence, in our opinion, the algorithm design and method developments papers are equally worthy of getting cited

  1. Neese,F.; Olbrich,G.
     Efficient use of the resolution of the identity approximation in time-dependent density functional calculations with hybrid density functionals
     Chem. Phys. Lett., 2002 362 170-178
     doi.org/10.1016/s0009-2614(02)01053-9
  2. Neese,F.
     An improvement of the resolution of the identity approximation for the formation of the Coulomb matrix
     J. Comp. Chem., 2003 24(14)1740-1747
     doi.org/10.1002/jcc.10318
  3. Neese,F.; Wennmohs,F.; Hansen,A.; Becker,U.
     Efficient, approximate and parallel Hartree-Fock and hybrid DFT calculations. A 'chain-of-spheres' algorithm for the Hartree-Fock exchange
     Chem. Phys., 2009 356(1-3)98-109
     doi.org/10.1016/j.chemphys.2008.10.036
  4. Petrenko,T.; Kossmann,S.; Neese,F.
     Efficient time-dependent density functional theory approximations for hybrid density functionals: Analytical gradients and parallelization
     J. Chem. Phys., 2011 134 054116
     doi.org/10.1063/1.3533441
  5. Helmich-Paris,B.; de Souza,B.; Neese,F.; Izsák,R.
     An improved chain of spheres for exchange algorithm
     J. Chem. Phys., 2021 155 104109
     doi.org/doi: 10.1063/5.0058766.
  6. Neese,F.
     The SHARK Integral Generation and Digestion System
     J. Comp. Chem., 2022  1-16
     doi.org/10.1002/jcc.26942
  7. Lehtola,S.; Steigemann,C.; Oliveira,M.; Marques,M.
     Recent developments in Libxc - A comprehensive library of functionals for density functional theory
     Software X, 2018 7 
     doi.org/10.1016/j.softx.2017.11.002
  8. Grimme,S.; Antony,J.; Ehrlich,S.; Krieg,H.
     A consistent and accurate ab initio parametrization of density functional dispersion correction (DFT-D) for the 94 elements H-Pu
     J. Chem. Phys., 2010 132 154104-XXXX
     doi.org/10.1063/1.3382344
  9. Grimme,S.; Ehrlich,S.; Goerigk,L.
     Effect of the damping function in dispersion corrected density functional theory
     J. Comput. Chem., 2011 32(7)1456-1465
     doi.org/10.1002/jcc.21759

List of suggested additional citations. These are papers that are important in the 'surrounding' of 
of this run, or papers that preceded the highly important papers. If you like your results we are grateful for a citation.

  1. Izsak,R.; Neese,F.
     An overlap fitted chain of spheres exchange method
     J. Chem. Phys., 2011 135 144105
     doi.org/10.1063/1.3646921
  2. Izsak,R.; Hansen,A.; Neese,F.
     The resolution of identity and chain of spheres approximations for the LPNO-CCSD singles Fock term
     Molec. Phys., 2012 110 2413-2417
     doi.org/10.1080/00268976.2012.687466
  3. Neese,F.
     The ORCA program system
     WIRES Comput. Molec. Sci., 2012 2(1)73-78
     doi.org/10.1002/wcms.81
  4. Izsak,R.; Neese,F.; Klopper,W.
     Robust fitting techniques in the chain of spheres approximation to the Fock exchange: The role of the complementary space
     J. Chem. Phys., 2013 139 
     doi.org/10.1063/1.4819264
  5. Neese,F.
     Software update: the ORCA program system, version 4.0
     WIRES Comput. Molec. Sci., 2018 8(1)1-6
     doi.org/10.1002/wcms.1327
  6. Neese,F.; Wennmohs,F.; Becker,U.; Riplinger,C.
     The ORCA quantum chemistry program package
     J. Chem. Phys., 2020 152 Art. No. L224108
     doi.org/10.1063/5.0004608

List of optional additional citations

  1. Neese,F.
     Approximate second-order SCF convergence for spin unrestricted wavefunctions
     Chem. Phys. Lett., 2000 325(1-3)93-98
     doi.org/10.1016/s0009-2614(00)00662-x

Timings for individual modules:

Sum of individual times          ...       25.077 sec (=   0.418 min)
Startup calculation              ...        2.540 sec (=   0.042 min)  10.1 %
SCF iterations                   ...       10.267 sec (=   0.171 min)  40.9 %
Property integrals               ...        2.236 sec (=   0.037 min)   8.9 %
Property calculations            ...        2.110 sec (=   0.035 min)   8.4 %
CIS module                       ...        7.924 sec (=   0.132 min)  31.6 %
                             ****ORCA TERMINATED NORMALLY****
TOTAL RUN TIME: 0 days 0 hours 0 minutes 27 seconds 147 msec
