
                                 *****************
                                 * O   R   C   A *
                                 *****************

                                            #,                                       
                                            ###                                      
                                            ####                                     
                                            #####                                    
                                            ######                                   
                                           ########,                                 
                                     ,,################,,,,,                         
                               ,,#################################,,                 
                          ,,##########################################,,             
                       ,#########################################, ''#####,          
                    ,#############################################,,   '####,        
                  ,##################################################,,,,####,       
                ,###########''''           ''''###############################       
              ,#####''   ,,,,##########,,,,          '''####'''          '####       
            ,##' ,,,,###########################,,,                        '##       
           ' ,,###''''                  '''############,,,                           
         ,,##''                                '''############,,,,        ,,,,,,###''
      ,#''                                            '''#######################'''  
     '                                                          ''''####''''         
             ,#######,   #######,   ,#######,      ##                                
            ,#'     '#,  ##    ##  ,#'     '#,    #''#        ,####,   ,####,        
            ##       ##  ##   ,#'  ##            #'  '#       #'       #'  '#        
            ##       ##  #######   ##           ,######,      #####,   #    #        
            '#,     ,#'  ##    ##  '#,     ,#' ,#      #,     #,   #   #,  ,#        
             '#######'   ##     ##  '#######'  #'      '#     '####' # '####'        



                #########################################################
                #                        -***-                          #
                #          Department of theory and spectroscopy        #
                #                                                       #
                #                      Frank Neese                      #
                #                                                       #
                #     Directorship, Architecture, Infrastructure        #
                #                    SHARK, DRIVERS                     #
                #        Core code/Algorithms in most modules           #
                #                                                       #
                #        Max Planck Institute fuer Kohlenforschung      #
                #                Kaiser Wilhelm Platz 1                 #
                #                 D-45470 Muelheim/Ruhr                 #
                #                      Germany                          #
                #                                                       #
                #                  All rights reserved                  #
                #                        -***-                          #
                #########################################################


                         Program Version 6.0.0  -   RELEASE  -


 With contributions from (in alphabetic order):
   Daniel Aravena         : Magnetic Suceptibility
   Michael Atanasov       : Ab Initio Ligand Field Theory (pilot matlab implementation)
   Alexander A. Auer      : GIAO ZORA, VPT2 properties, NMR spectrum
   Ute Becker             : All parallelization in ORCA, NUMFREQ, NUMCALC
   Giovanni Bistoni       : ED, misc. LED, open-shell LED, HFLD
   Martin Brehm           : Molecular dynamics
   Dmytro Bykov           : pre 5.0 version of the SCF Hessian
   Marcos Casanova-Páez   : Triplet and SCS-CIS(D). UHF-(DLPNO)-IP/EA/STEOM-CCSD. UHF-CVS-IP/STEOM-CCSD
   Vijay G. Chilkuri      : MRCI spin determinant printing, contributions to CSF-ICE
   Pauline Colinet        : FMM embedding
   Dipayan Datta          : RHF DLPNO-CCSD density
   Achintya Kumar Dutta   : EOM-CC, STEOM-CC
   Nicolas Foglia         : Exact transition moments, OPA infrastructure, MCD improvements
   Dmitry Ganyushin       : Spin-Orbit,Spin-Spin,Magnetic field MRCI
   Miquel Garcia          : C-PCM and meta-GGA Hessian, CCSD/C-PCM, Gaussian charge scheme
   Tiago L. C. Gouveia    : GS-ROHF, GS-ROCIS
   Yang Guo               : DLPNO-NEVPT2, F12-NEVPT2, CIM, IAO-localization
   Andreas Hansen         : Spin unrestricted coupled pair/coupled cluster methods
   Ingolf Harden          : AUTO-CI MPn and infrastructure 
   Benjamin Helmich-Paris : MC-RPA, TRAH-(SCF,CASSCF), AVAS, COSX integrals, SCF dyn. polar.
   Lee Huntington         : MR-EOM, pCC
   Robert Izsak           : Overlap fitted RIJCOSX, COSX-SCS-MP3, EOM
   Riya Kayal             : Wick's Theorem for AUTO-CI, AUTO-CI UHF-CCSDT
   Emily Kempfer          : AUTO-CI, RHF CISDT and CCSDT
   Christian Kollmar      : KDIIS, OOCD, Brueckner-CCSD(T), CCSD density, CASPT2, CASPT2-K, improved NEVPT2
   Axel Koslowski         : Symmetry handling
   Simone Kossmann        : Meta GGA functionals, TD-DFT gradient, OOMP2, (MP2 Hessian; deprecated post 5.0)
   Lucas Lang             : DCDCAS
   Marvin Lechner         : AUTO-CI (C++ implementation), FIC-MRCC
   Spencer Leger          : CASSCF response
   Dagmar Lenk            : GEPOL surface, SMD, ORCA-2-JSON
   Dimitrios Liakos       : Extrapolation schemes; Compound Job, initial MDCI parallelization
   Dimitrios Manganas     : Further ROCIS development; embedding schemes. LFT, Crystal Embedding
   Dimitrios Pantazis     : SARC Basis sets
   Anastasios Papadopoulos: AUTO-CI, single reference methods and gradients
   Taras Petrenko         : pre 6.0 DFT Hessian and TD-DFT gradient, (ASA, deprecated), ECA, 1-Electron XAS/XES, NRVS
   Peter Pinski           : DLPNO-MP2, DLPNO-MP2 Gradient
   Christoph Reimann      : Effective Core Potentials
   Marius Retegan         : Local ZFS, SOC
   Christoph Riplinger    : Optimizer, TS searches, QM/MM, DLPNO-CCSD(T), (RO)-DLPNO pert. Triples
   Michael Roemelt        : Original ROCIS implementation
   Masaaki Saitow         : Open-shell DLPNO-CCSD energy and density
   Barbara Sandhoefer     : DKH picture change effects
   Kantharuban Sivalingam : CASSCF convergence/infrastructure, NEVPT2 and variants, FIC-MRCI
   Bernardo de Souza      : ESD, SOC TD-DFT
   Georgi Stoychev        : AutoAux, RI-MP2 NMR, DLPNO-MP2 response, X2C
   Van Anh Tran           : RI-MP2 g-tensors
   Willem Van den Heuvel  : Paramagnetic NMR
   Zikuan Wang            : NOTCH, Electric field optimization 
   Frank Wennmohs         : Technical directorship and infrastructure
   Hang Xu                : AUTO-CI-Response properties 


 We gratefully acknowledge several colleagues who have allowed us to
 interface, adapt or use parts of their codes:
   Stefan Grimme, W. Hujo, H. Kruse, P. Pracht,  : VdW corrections, initial TS optimization,
                  C. Bannwarth, S. Ehlert,         DFT functionals, gCP, sTDA/sTD-DF
                  L. Wittmann, M. Mueller
   Ed Valeev, F. Pavosevic, A. Kumar             : LibInt (2-el integral package), F12 methods
   Garnet Chan, S. Sharma, J. Yang, R. Olivares  : DMRG
   Ulf Ekstrom                                   : XCFun DFT Library
   Mihaly Kallay                                 : mrcc  (arbitrary order and MRCC methods)
   Frank Weinhold                                : gennbo (NPA and NBO analysis)
   Simon Mueller                                 : openCOSMO-RS
   Christopher J. Cramer and Donald G. Truhlar   : smd solvation model
   Lars Goerigk                                  : TD-DFT with DH, B97 family of functionals
   V. Asgeirsson, H. Jonsson                     : NEB implementation
   FAccTs GmbH                                   : IRC, NEB, NEB-TS, DLPNO-Multilevel, CI-OPT
                                                   MM, QMMM, 2- and 3-layer-ONIOM, Crystal-QMMM,
                                                   LR-CPCM, SF, NACMEs, symmetry and pop. for TD-DFT,
                                                   nearIR, NL-DFT gradient (VV10), updates on ESD,
                                                   ML-optimized integration grids, MBIS, APM,
                                                   GOAT, DOCKER, SOLVATOR, interface openCOSMO-RS
   S Lehtola, MJT Oliveira, MAL Marques          : LibXC Library
   Liviu Ungur et al                             : ANISO software


 Your calculation uses the libint2 library for the computation of 2-el integrals
 For citations please refer to: http://libint.valeyev.net

 Your ORCA version has been built with support for libXC version: 6.2.2
 For citations please refer to: https://libxc.gitlab.io

 This ORCA versions uses:
   CBLAS   interface :  Fast vector & matrix operations
   LAPACKE interface :  Fast linear algebra routines
   SCALAPACK package :  Parallel linear algebra routines
   Shared memory     :  Shared parallel matrices
   BLAS/LAPACK       :  OpenBLAS 0.3.27  USE64BITINT DYNAMIC_ARCH NO_AFFINITY Zen SINGLE_THREADED
        Core in use  :  Zen
   Copyright (c) 2011-2014, The OpenBLAS Project


Your calculation utilizes the atom-pairwise dispersion correction
with the Becke-Johnson damping scheme (D3BJ)


Warning: RI is on but no J-basis has been assigned. Assigning Def2/J (nothing to worry about!)
================================================================================

----- Orbital basis set information -----
Your calculation utilizes the basis: def2-TZVPPD
   F. Weigend and R. Ahlrichs, Phys. Chem. Chem. Phys. 7, 3297 (2005).
   D. Rappoport and F. Furche, J. Chem. Phys. 133, 134105 (2010)
   D. Rappoport, J. Chem. Phys. 155, 124102 (2021).

----- AuxJ basis set information -----
Your calculation utilizes the auxiliary basis: def2/J
   F. Weigend, Phys. Chem. Chem. Phys. 8, 1057 (2006).

================================================================================
                                        WARNINGS
                       Please study these warnings very carefully!
================================================================================

Using LibXC functional ID 531 : wB97M-V exchange-correlation functional
[ 1]  N. Mardirossian and M. Head-Gordon.,  J. Chem. Phys. 144, 214110 (2016)
Using LibXC functional ID 531 : wB97M-V exchange-correlation functional
[ 1]  N. Mardirossian and M. Head-Gordon.,  J. Chem. Phys. 144, 214110 (2016)

WARNING: B97M-V or wB97M-V functional requested.
  ===> : libXC variant has now been activated.
         Any manually given DFX/HFX/RangeSep scaling parameters are IGNORED!

Your calculation utilizes LibXC
 by S Lehtola, C Steigemann, MJT Oliveira & MAL Marques
Please cite in your paper:
 S Lehtola, C Steigemann, MJT Oliveira & MAL Marques, SoftwareX, 7, (2018), 1.
   


WARNING: your system is open-shell and RHF/RKS was chosen
  ===> : WILL SWITCH to UHF/UKS

INFO   : Checking CIS options ...

WARNING: CIS/ROCIS methods need fully converged wavefunctions
  ===> : Setting SCFConvForced true
         You can overwrite this default with %scf ConvForced false 


================================================================================
                                       INPUT FILE
================================================================================
NAME = orca.inp
|  1> ! Engrad wB97M-D3BJ def2-TZVPPD 
|  2> %pal nprocs 8 end%pal nprocs 16 end 
|  3> %tddft nroots 2 Iroot 1
|  4>  sf true 
|  5> end 
|  6> *xyz 0 3 
|  7> O   1.55386568681308 0.9901904306484 -0.0895071143535
|  8> C   0.96037902146438 -0.00969779876076 0.20310575263115
|  9> C   -0.31302190119822 -0.67501126034694 -0.21906828065669
| 10> H   1.43679405400712 -0.64484121277066 0.98822551553116
| 11> H   -0.05563336547731 -1.67443311211857 -0.56893423594655
| 12> H   -0.86621068434229 -0.13935285251487 -0.98690734962594
| 13> H   -0.92726312222498 -0.7942318609614 0.67308571242037
| 14> *
| 15> 
| 16>                          ****END OF INPUT****
================================================================================

                     *******************************
                     * Energy+Gradient Calculation *
                     *******************************

---------------------------------
CARTESIAN COORDINATES (ANGSTROEM)
---------------------------------
  O      1.553866    0.990190   -0.089507
  C      0.960379   -0.009698    0.203106
  C     -0.313022   -0.675011   -0.219068
  H      1.436794   -0.644841    0.988226
  H     -0.055633   -1.674433   -0.568934
  H     -0.866211   -0.139353   -0.986907
  H     -0.927263   -0.794232    0.673086

----------------------------
CARTESIAN COORDINATES (A.U.)
----------------------------
  NO LB      ZA    FRAG     MASS         X           Y           Z
   0 O     8.0000    0    15.999    2.936381    1.871189   -0.169144
   1 C     6.0000    0    12.011    1.814853   -0.018326    0.383814
   2 C     6.0000    0    12.011   -0.591526   -1.275586   -0.413979
   3 H     1.0000    0     1.008    2.715147   -1.218573    1.867476
   4 H     1.0000    0     1.008   -0.105132   -3.164220   -1.075130
   5 H     1.0000    0     1.008   -1.636901   -0.263339   -1.864985
   6 H     1.0000    0     1.008   -1.752273   -1.500881    1.271948

--------------------------------
INTERNAL COORDINATES (ANGSTROEM)
--------------------------------
 O      0   0   0     0.000000000000     0.00000000     0.00000000
 C      1   0   0     1.199010084688     0.00000000     0.00000000
 C      2   1   0     1.497472145447   136.27118214     0.00000000
 H      2   1   3     1.116598173780   115.77004656   179.99978986
 H      3   2   1     1.089724315040   107.28560521   122.52161755
 H      3   2   1     1.087439467517   114.38101420   359.97470811
 H      3   2   1     1.089699305581   107.28512540   237.42697633

---------------------------
INTERNAL COORDINATES (A.U.)
---------------------------
 O      0   0   0     0.000000000000     0.00000000     0.00000000
 C      1   0   0     2.265800691869     0.00000000     0.00000000
 C      2   1   0     2.829812248069   136.27118214     0.00000000
 H      2   1   3     2.110064750081   115.77004656   179.99978986
 H      3   2   1     2.059280516901   107.28560521   122.52161755
 H      3   2   1     2.054962780824   114.38101420   359.97470811
 H      3   2   1     2.059233255871   107.28512540   237.42697633

---------------------
BASIS SET INFORMATION
---------------------
There are 3 groups of distinct atoms

 Group   1 Type O   : 12s7p3d1f contracted to 6s4p3d1f pattern {621111/4111/111/1}
 Group   2 Type C   : 12s6p3d1f contracted to 6s3p3d1f pattern {621111/411/111/1}
 Group   3 Type H   : 5s3p1d contracted to 3s3p1d pattern {311/111/1}

Atom   0O    basis set group =>   1
Atom   1C    basis set group =>   2
Atom   2C    basis set group =>   2
Atom   3H    basis set group =>   3
Atom   4H    basis set group =>   3
Atom   5H    basis set group =>   3
Atom   6H    basis set group =>   3
---------------------------------
AUXILIARY/J BASIS SET INFORMATION
---------------------------------
There are 3 groups of distinct atoms

 Group   1 Type O   : 12s5p4d2f1g contracted to 6s4p3d1f1g pattern {711111/2111/211/2/1}
 Group   2 Type C   : 12s5p4d2f1g contracted to 6s4p3d1f1g pattern {711111/2111/211/2/1}
 Group   3 Type H   : 5s2p1d contracted to 3s1p1d pattern {311/2/1}

Atom   0O    basis set group =>   1
Atom   1C    basis set group =>   2
Atom   2C    basis set group =>   2
Atom   3H    basis set group =>   3
Atom   4H    basis set group =>   3
Atom   5H    basis set group =>   3
Atom   6H    basis set group =>   3
[1739830675.798079] [ohm:3856631:0]        ib_iface.c:1059 UCX  ERROR ibv_create_cq(cqe=256) failed: Connection timed out
[1739830675.807340] [ohm:3856627:0]        ib_iface.c:1059 UCX  ERROR ibv_create_cq(cqe=256) failed: Connection timed out
[1739830675.811435] [ohm:3856629:0]        ib_iface.c:1059 UCX  ERROR ibv_create_cq(cqe=256) failed: Connection timed out
[1739830675.811767] [ohm:3856630:0]        ib_iface.c:1059 UCX  ERROR ibv_create_cq(cqe=256) failed: Connection timed out
[1739830675.812241] [ohm:3856626:0]        ib_iface.c:1059 UCX  ERROR ibv_create_cq(cqe=256) failed: Connection timed out
[1739830675.812394] [ohm:3856628:0]        ib_iface.c:1059 UCX  ERROR ibv_create_cq(cqe=256) failed: Connection timed out
[1739830675.816523] [ohm:3856637:0]        ib_iface.c:1059 UCX  ERROR ibv_create_cq(cqe=256) failed: Connection timed out
[1739830675.816518] [ohm:3856643:0]        ib_iface.c:1059 UCX  ERROR ibv_create_cq(cqe=256) failed: Connection timed out
[1739830675.816552] [ohm:3856633:0]        ib_iface.c:1059 UCX  ERROR ibv_create_cq(cqe=256) failed: Connection timed out
[1739830675.818499] [ohm:3856635:0]        ib_iface.c:1059 UCX  ERROR ibv_create_cq(cqe=256) failed: Connection timed out
[1739830675.818500] [ohm:3856632:0]        ib_iface.c:1059 UCX  ERROR ibv_create_cq(cqe=256) failed: Connection timed out
[1739830675.819037] [ohm:3856648:0]        ib_iface.c:1059 UCX  ERROR ibv_create_cq(cqe=256) failed: Connection timed out
[1739830675.819893] [ohm:3856639:0]        ib_iface.c:1059 UCX  ERROR ibv_create_cq(cqe=256) failed: Connection timed out
[1739830675.820751] [ohm:3856652:0]        ib_iface.c:1059 UCX  ERROR ibv_create_cq(cqe=256) failed: Connection timed out
[1739830675.833863] [ohm:3856654:0]        ib_iface.c:1059 UCX  ERROR ibv_create_cq(cqe=256) failed: Connection timed out
[1739830675.834301] [ohm:3856655:0]        ib_iface.c:1059 UCX  ERROR ibv_create_cq(cqe=256) failed: Connection timed out


           ************************************************************
           *        Program running with 16 parallel MPI-processes    *
           *              working on a common directory               *
           ************************************************************
------------------------------------------------------------------------------
                             ORCA STARTUP CALCULATIONS
                           -- RI-GTO INTEGRALS CHOSEN --
------------------------------------------------------------------------------
------------------------------------------------------------------------------
                   ___                                                        
                  /   \      - P O W E R E D   B Y -                         
                 /     \                                                     
                 |  |  |   _    _      __       _____    __    __             
                 |  |  |  | |  | |    /  \     |  _  \  |  |  /  |          
                  \  \/   | |  | |   /    \    | | | |  |  | /  /          
                 / \  \   | |__| |  /  /\  \   | |_| |  |  |/  /          
                |  |  |   |  __  | /  /__\  \  |    /   |      \           
                |  |  |   | |  | | |   __   |  |    \   |  |\   \          
                \     /   | |  | | |  |  |  |  | |\  \  |  | \   \       
                 \___/    |_|  |_| |__|  |__|  |_| \__\ |__|  \__/        
                                                                              
                      - O R C A' S   B I G   F R I E N D -                    
                                      &                                       
                       - I N T E G R A L  F E E D E R -                       
                                                                              
 v1 FN, 2020, v2 2021, v3 2022-2024                                           
------------------------------------------------------------------------------


----------------------
SHARK INTEGRAL PACKAGE
----------------------

Number of atoms                             ...      7
Number of basis functions                   ...    182
Number of shells                            ...     68
Maximum angular momentum                    ...      3
Integral batch strategy                     ... SHARK/LIBINT Hybrid
RI-J (if used) integral strategy            ... SPLIT-RIJ (Revised 2003 algorithm where possible)
Printlevel                                  ...      1
Contraction scheme used                     ... SEGMENTED contraction
Prescreening option                         ... SCHWARTZ
   Thresh                                   ... 2.500e-11
   Tcut                                     ... 2.500e-12
   Tpresel                                  ... 2.500e-12 
Coulomb Range Separation                    ... NOT USED
Exchange Range Separation                   ... Long Range
   Mu parameter                             ... 3.000e-01
   Scaling (regular/separated)              ... 1.500e-01 8.500e-01
Multipole approximations                    ... NOT USED
Finite Nucleus Model                        ... NOT USED
CABS basis                                  ... NOT available
Auxiliary Coulomb fitting basis             ... AVAILABLE
   # of basis functions in Aux-J            ...    191
   # of shells in Aux-J                     ...     65
   Maximum angular momentum in Aux-J        ...      4
Auxiliary J/K fitting basis                 ... NOT available
Auxiliary Correlation fitting basis         ... NOT available
Auxiliary 'external' fitting basis          ... NOT available

Checking pre-screening integrals            ... done (  0.0 sec) Dimension = 68
Check shell pair data                       ... done (  0.0 sec)
Shell pair information
Shell pair cut-off parameter TPreSel        ...   2.5e-12
Total number of shell pairs                 ...      2346
Shell pairs after pre-screening             ...      2322
Total number of primitive shell pairs       ...      5434
Primitive shell pairs kept                  ...      4803
          la=0 lb=0:    453 shell pairs
          la=1 lb=0:    653 shell pairs
          la=1 lb=1:    253 shell pairs
          la=2 lb=0:    385 shell pairs
          la=2 lb=1:    286 shell pairs
          la=2 lb=2:     91 shell pairs
          la=3 lb=0:     90 shell pairs
          la=3 lb=1:     66 shell pairs
          la=3 lb=2:     39 shell pairs
          la=3 lb=3:      6 shell pairs

Calculating one electron integrals          ... done (  0.0 sec)
Calculating RI/J V-Matrix + Cholesky decomp.... done (  0.0 sec)
Calculating Nuclear repulsion               ... done (  0.0 sec) ENN=     69.469430180060 Eh

Diagonalization of the overlap matrix:
Smallest eigenvalue                        ... 1.352e-05
Time for diagonalization                   ...    0.003 sec
Threshold for overlap eigenvalues          ... 1.000e-07
Number of eigenvalues below threshold      ... 0
Time for construction of square roots      ...    0.001 sec
Total time needed                          ...    0.005 sec

-------------------
DFT GRID GENERATION
-------------------

General Integration Accuracy     IntAcc      ... 4.388
Radial Grid Type                 RadialGrid  ... OptM3 with GC (2021)
Angular Grid (max. ang.)         AngularGrid ... 4 (Lebedev-302)
Angular grid pruning method      GridPruning ... 4 (adaptive)
Weight generation scheme         WeightScheme... mBecke (2022)
Basis function cutoff            BFCut       ... 1.0000e-11
Integration weight cutoff        WCut        ... 1.0000e-14
Partially contracted basis set               ... off
Rotationally invariant grid construction     ... off
Angular grids for H and He will be reduced by one unit
Diffuse basis detected: some atoms will have their outermost
                        angular grid increased by 1.

Total number of grid points                  ...    33148
Total number of batches                      ...      521
Average number of points per batch           ...       63
Average number of grid points per atom       ...     4735

--------------------
COSX GRID GENERATION
--------------------

GRIDX 1
-------
General Integration Accuracy     IntAcc      ... 3.816
Radial Grid Type                 RadialGrid  ... OptM3 with GC (2021)
Angular Grid (max. ang.)         AngularGrid ... 1 (Lebedev-50)
Angular grid pruning method      GridPruning ... 4 (adaptive)
Weight generation scheme         WeightScheme... mBecke (2022)
Basis function cutoff            BFCut       ... 1.0000e-11
Integration weight cutoff        WCut        ... 1.0000e-14
Partially contracted basis set               ... on
Rotationally invariant grid construction     ... off
Angular grids for H and He will be reduced by one unit
Diffuse basis detected: some atoms will have their outermost
                        angular grid increased by 1.

Total number of grid points                  ...     4165
Total number of batches                      ...       36
Average number of points per batch           ...      115
Average number of grid points per atom       ...      595
UseSFitting                                  ... on

GRIDX 2
-------
General Integration Accuracy     IntAcc      ... 4.020
Radial Grid Type                 RadialGrid  ... OptM3 with GC (2021)
Angular Grid (max. ang.)         AngularGrid ... 2 (Lebedev-110)
Angular grid pruning method      GridPruning ... 4 (adaptive)
Weight generation scheme         WeightScheme... mBecke (2022)
Basis function cutoff            BFCut       ... 1.0000e-11
Integration weight cutoff        WCut        ... 1.0000e-14
Partially contracted basis set               ... on
Rotationally invariant grid construction     ... off
Angular grids for H and He will be reduced by one unit
Diffuse basis detected: some atoms will have their outermost
                        angular grid increased by 1.

Total number of grid points                  ...    10293
Total number of batches                      ...       84
Average number of points per batch           ...      122
Average number of grid points per atom       ...     1470
UseSFitting                                  ... on

GRIDX 3
-------
General Integration Accuracy     IntAcc      ... 4.338
Radial Grid Type                 RadialGrid  ... OptM3 with GC (2021)
Angular Grid (max. ang.)         AngularGrid ... 3 (Lebedev-194)
Angular grid pruning method      GridPruning ... 4 (adaptive)
Weight generation scheme         WeightScheme... mBecke (2022)
Basis function cutoff            BFCut       ... 1.0000e-11
Integration weight cutoff        WCut        ... 1.0000e-14
Partially contracted basis set               ... on
Rotationally invariant grid construction     ... off
Angular grids for H and He will be reduced by one unit
Diffuse basis detected: some atoms will have their outermost
                        angular grid increased by 1.

Total number of grid points                  ...    23126
Total number of batches                      ...      184
Average number of points per batch           ...      125
Average number of grid points per atom       ...     3304
UseSFitting                                  ... on
Initializing property integral containers    ... done (  0.0 sec)

SHARK setup successfully completed in   0.3 seconds

Maximum memory used throughout the entire STARTUP-calculation: 13.8 MB
[1739830676.796766] [ohm:3856715:0]        ib_iface.c:1059 UCX  ERROR ibv_create_cq(cqe=256) failed: Connection timed out
[1739830676.796774] [ohm:3856711:0]        ib_iface.c:1059 UCX  ERROR ibv_create_cq(cqe=256) failed: Connection timed out
[1739830676.797711] [ohm:3856713:0]        ib_iface.c:1059 UCX  ERROR ibv_create_cq(cqe=256) failed: Connection timed out
[1739830676.807639] [ohm:3856717:0]        ib_iface.c:1059 UCX  ERROR ibv_create_cq(cqe=256) failed: Connection timed out
[1739830676.809056] [ohm:3856710:0]        ib_iface.c:1059 UCX  ERROR ibv_create_cq(cqe=256) failed: Connection timed out
[1739830676.809083] [ohm:3856714:0]        ib_iface.c:1059 UCX  ERROR ibv_create_cq(cqe=256) failed: Connection timed out
[1739830676.809169] [ohm:3856716:0]        ib_iface.c:1059 UCX  ERROR ibv_create_cq(cqe=256) failed: Connection timed out
[1739830676.809433] [ohm:3856712:0]        ib_iface.c:1059 UCX  ERROR ibv_create_cq(cqe=256) failed: Connection timed out
[1739830676.811355] [ohm:3856720:0]        ib_iface.c:1059 UCX  ERROR ibv_create_cq(cqe=256) failed: Connection timed out
[1739830676.815701] [ohm:3856723:0]        ib_iface.c:1059 UCX  ERROR ibv_create_cq(cqe=256) failed: Connection timed out
[1739830676.816223] [ohm:3856718:0]        ib_iface.c:1059 UCX  ERROR ibv_create_cq(cqe=256) failed: Connection timed out
[1739830676.816227] [ohm:3856722:0]        ib_iface.c:1059 UCX  ERROR ibv_create_cq(cqe=256) failed: Connection timed out
[1739830676.845160] [ohm:3856730:0]        ib_iface.c:1059 UCX  ERROR ibv_create_cq(cqe=256) failed: Connection timed out
[1739830676.845160] [ohm:3856740:0]        ib_iface.c:1059 UCX  ERROR ibv_create_cq(cqe=256) failed: Connection timed out
[1739830676.846554] [ohm:3856725:0]        ib_iface.c:1059 UCX  ERROR ibv_create_cq(cqe=256) failed: Connection timed out
[1739830676.846551] [ohm:3856734:0]        ib_iface.c:1059 UCX  ERROR ibv_create_cq(cqe=256) failed: Connection timed out


           ************************************************************
           *        Program running with 16 parallel MPI-processes    *
           *              working on a common directory               *
           ************************************************************
-------------------------------------------------------------------------------
                                 ORCA GUESS
                   Start orbitals & Density for SCF / CASSCF
-------------------------------------------------------------------------------

------------
SCF SETTINGS
------------
Hamiltonian:
 Density Functional     Method          .... DFT(GTOs)
  Functional kind                       .... Exchange-Correlation
  Functional name                       .... wB97M-V exchange-correlation functional
  Functional family                     .... Hybrid MGGA
  Functional refs                              
    [ 0] N. Mardirossian and M. Head-Gordon.,  J. Chem. Phys. 144, 214110 (2016), doi: 10.1063/1.4952647
  Fraction of HF Exchange (short range) .... 0.1500
  Fraction of HF Exchange (long range)  .... 1.0000
  Range separation parameter mu         .... 0.3000
  Functional external parameters        .... 17
    Parameter  0 _cx00      =  8.500000e-01 : u^00 coefficient for exchange
    Parameter  1 _cx01      =  1.007000e+00 : u^01 coefficient for exchange
    Parameter  2 _cx10      =  2.590000e-01 : u^10 coefficient for exchange
    Parameter  3 _css00     =  4.430000e-01 : u^00 coefficient for same-spin correlation
    Parameter  4 _css04     = -1.437000e+00 : u^04 coefficient for same-spin correlation
    Parameter  5 _css10     = -4.535000e+00 : u^10 coefficient for same-spin correlation
    Parameter  6 _css20     = -3.390000e+00 : u^20 coefficient for same-spin correlation
    Parameter  7 _css43     =  4.278000e+00 : u^43 coefficient for same-spin correlation
    Parameter  8 _cos00     =  1.000000e+00 : u^00 coefficient for opposite-spin correlation
    Parameter  9 _cos10     =  1.358000e+00 : u^10 coefficient for opposite-spin correlation
    Parameter 10 _cos20     =  2.924000e+00 : u^20 coefficient for opposite-spin correlation
    Parameter 11 _cos21     = -8.812000e+00 : u^21 coefficient for opposite-spin correlation
    Parameter 12 _cos60     = -1.390000e+00 : u^60 coefficient for opposite-spin correlation
    Parameter 13 _cos61     =  9.142000e+00 : u^61 coefficient for opposite-spin correlation
    Parameter 14 _alpha     =  1.000000e+00 : fraction of HF exchange
    Parameter 15 _beta      = -8.500000e-01 : fraction of short-range exchange
    Parameter 16 _omega     =  3.000000e-01 : range-separation constant
 Long-range corrected/Screened/Range-Separated Hybrid DFT is turned on
   Amount of maximum screened exact exchange              ....  0.850000
   Range separation parameter mu (erf(mu*r12)/r12)        ....  0.300000
 RI-approximation to the Coulomb term is turned on
   Number of AuxJ basis functions       .... 191
   RIJ-COSX (HFX calculated with COS-X)).... on


General Settings:
 Integral files         IntName         .... orca
 Hartree-Fock type      HFTyp           .... UHF
 Total Charge           Charge          ....    0
 Multiplicity           Mult            ....    3
 Number of Electrons    NEL             ....   24
 Basis Dimension        Dim             ....  182
 Nuclear Repulsion      ENuc            ....     69.4694301801 Eh

Convergence Acceleration:
 AO-DIIS                CNVDIIS         .... on
   Start iteration      DIISMaxIt       ....    12
   Startup error        DIISStart       ....  0.200000
   # of expansion vecs  DIISMaxEq       ....     5
   Bias factor          DIISBfac        ....   1.050
   Max. coefficient     DIISMaxC        ....  10.000
 MO-DIIS                CNVKDIIS        .... off
 Trust-Rad. Augm. Hess. CNVTRAH         .... auto
   Auto Start mean grad. ratio tolernc. ....  1.125000
   Auto Start start iteration           ....    50
   Auto Start num. interpolation iter.  ....    10
   Max. Number of Micro iterations      ....    24
   Max. Number of Macro iterations      .... Maxiter - #DIIS iter
   Number of Davidson start vectors     ....     2
   Converg. threshold    (grad. norm)   ....   1.000e-05
   Grad. Scal. Fac. for Micro threshold ....   0.100
   Minimum threshold for Micro iter.    ....   1.000e-02
   NR start threshold (gradient norm)   ....   1.000e-04
   Initial trust radius                 ....   0.400
   Minimum AH scaling param. (alpha)    ....   1.000
   Maximum AH scaling param. (alpha)    .... 1000.000
   Quad. conv. algorithm                .... NR
   White noise on init. David. guess    .... on
   Maximum white noise                  ....   0.010
   Pseudo random numbers                .... off
   Inactive MOs                         .... canonical
   Orbital update algorithm             .... Taylor
   Preconditioner                       .... Diag
   Full preconditioner red. dimension   ....   250
 SOSCF                  CNVSOSCF        .... on
   Start iteration      SOSCFMaxIt      ....   150
   Startup grad/error   SOSCFStart      ....  0.003300
   Hessian update       SOSCFHessUp     .... L-BFGS
 Level Shifting         CNVShift        .... on
   Level shift para.    LevelShift      ....    0.2500
   Turn off err/grad.   ShiftErr        ....    0.0010
 Zerner damping         CNVZerner       .... off
 Static damping         CNVDamp         .... on
   Fraction old density DampFac         ....    0.7000
   Max. Damping (<1)    DampMax         ....    0.9800
   Min. Damping (>=0)   DampMin         ....    0.0000
   Turn off err/grad.   DampErr         ....    0.1000

SCF Procedure:
 Maximum # iterations   MaxIter         ....   125
 SCF integral mode      SCFMode         .... Direct
   Integral package                     .... SHARK and LIBINT hybrid scheme
 Reset frequency        DirectResetFreq ....    20
 Integral Threshold     Thresh          ....  2.500e-11 Eh
 Primitive CutOff       TCut            ....  2.500e-12 Eh

Convergence Tolerance:
 Convergence Check Mode ConvCheckMode   .... Total+1el-Energy
 Convergence forced     ConvForced      .... 1
 Energy Change          TolE            ....  1.000e-08 Eh
 1-El. energy change                    ....  1.000e-05 Eh
 Orbital Gradient       TolG            ....  1.000e-05
 Orbital Rotation angle TolX            ....  1.000e-05
 DIIS Error             TolErr          ....  5.000e-07

------------------------------
INITIAL GUESS: MODEL POTENTIAL
------------------------------
Loading Hartree-Fock densities                     ... done
Calculating cut-offs                               ... done
Initializing the effective Hamiltonian             ... done
Setting up the integral package (SHARK)            ... done
Starting the Coulomb interaction                   ... done (   0.0 sec)
Making the grid                                    ... done (   0.0 sec)
Mapping shells                                     ... done
Starting the XC term evaluation                    ... done (   0.0 sec)
  promolecular density results
     # of electrons  =     23.997865489
     EX              =    -19.522409910
     EC              =     -0.771936615
     EX+EC           =    -20.294346524
Transforming the Hamiltonian                       ... done (   0.0 sec)
Diagonalizing the Hamiltonian                      ... done (   0.0 sec)
Back transforming the eigenvectors                 ... done (   0.0 sec)
Now organizing SCF variables                       ... done
                      ------------------
                      INITIAL GUESS DONE (   0.1 sec)
                      ------------------
             **** ENERGY FILE WAS UPDATED (orca.en.tmp) ****
Finished Guess after   0.5 sec
Maximum memory used throughout the entire GUESS-calculation: 9.7 MB
[1739830677.555852] [ohm:3856815:0]        ib_iface.c:1059 UCX  ERROR ibv_create_cq(cqe=256) failed: Connection timed out
[1739830677.555849] [ohm:3856811:0]        ib_iface.c:1059 UCX  ERROR ibv_create_cq(cqe=256) failed: Connection timed out
[1739830677.555907] [ohm:3856809:0]        ib_iface.c:1059 UCX  ERROR ibv_create_cq(cqe=256) failed: Connection timed out
[1739830677.574629] [ohm:3856812:0]        ib_iface.c:1059 UCX  ERROR ibv_create_cq(cqe=256) failed: Connection timed out
[1739830677.574623] [ohm:3856810:0]        ib_iface.c:1059 UCX  ERROR ibv_create_cq(cqe=256) failed: Connection timed out
[1739830677.576012] [ohm:3856813:0]        ib_iface.c:1059 UCX  ERROR ibv_create_cq(cqe=256) failed: Connection timed out
[1739830677.576049] [ohm:3856808:0]        ib_iface.c:1059 UCX  ERROR ibv_create_cq(cqe=256) failed: Connection timed out
[1739830677.576043] [ohm:3856814:0]        ib_iface.c:1059 UCX  ERROR ibv_create_cq(cqe=256) failed: Connection timed out
[1739830677.581232] [ohm:3856821:0]        ib_iface.c:1059 UCX  ERROR ibv_create_cq(cqe=256) failed: Connection timed out
[1739830677.581231] [ohm:3856818:0]        ib_iface.c:1059 UCX  ERROR ibv_create_cq(cqe=256) failed: Connection timed out
[1739830677.581587] [ohm:3856816:0]        ib_iface.c:1059 UCX  ERROR ibv_create_cq(cqe=256) failed: Connection timed out
[1739830677.595144] [ohm:3856833:0]        ib_iface.c:1059 UCX  ERROR ibv_create_cq(cqe=256) failed: Connection timed out
[1739830677.596359] [ohm:3856820:0]        ib_iface.c:1059 UCX  ERROR ibv_create_cq(cqe=256) failed: Connection timed out
[1739830677.596358] [ohm:3856824:0]        ib_iface.c:1059 UCX  ERROR ibv_create_cq(cqe=256) failed: Connection timed out
[1739830677.607611] [ohm:3856838:0]        ib_iface.c:1059 UCX  ERROR ibv_create_cq(cqe=256) failed: Connection timed out
[1739830677.607754] [ohm:3856835:0]        ib_iface.c:1059 UCX  ERROR ibv_create_cq(cqe=256) failed: Connection timed out


           ************************************************************
           *        Program running with 16 parallel MPI-processes    *
           *              working on a common directory               *
           ************************************************************

-------------------------------------------------------------------------------------------
                                      ORCA LEAN-SCF
                              memory conserving SCF solver
-------------------------------------------------------------------------------------------

----------------------------------------D-I-I-S--------------------------------------------
Iteration    Energy (Eh)           Delta-E    RMSDP     MaxDP     DIISErr   Damp  Time(sec)
-------------------------------------------------------------------------------------------
               ***  Starting incremental Fock matrix formation  ***
    1    -153.6921660429557619     0.00e+00  1.00e-03  2.65e-02  8.07e-02  0.700   0.4
    2    -153.7249308955884430    -3.28e-02  9.19e-04  2.50e-02  4.91e-02  0.700   0.3
                               ***Turning on AO-DIIS***
    3    -153.7424366714492976    -1.75e-02  7.07e-04  2.17e-02  2.57e-02  0.700   0.3
    4    -153.7530496796018156    -1.06e-02  1.68e-03  5.07e-02  1.85e-02  0.000   0.3
    5    -153.7769563441803484    -2.39e-02  1.26e-04  4.52e-03  4.23e-03  0.000   0.3
                              *** Initializing SOSCF ***
---------------------------------------S-O-S-C-F--------------------------------------
Iteration    Energy (Eh)           Delta-E    RMSDP     MaxDP     MaxGrad    Time(sec)
--------------------------------------------------------------------------------------
    6    -153.7773649874674220    -4.09e-04  8.07e-05  2.18e-03  2.81e-03     0.3
               *** Restarting incremental Fock matrix formation ***
    7    -153.7775893701337395    -2.24e-04  6.52e-05  1.70e-03  4.31e-03     0.4
    8    -153.7776962893556174    -1.07e-04  9.22e-05  1.86e-03  1.84e-03     0.3
    9    -153.7777818529398246    -8.56e-05  2.11e-05  5.87e-04  3.09e-04     0.4
   10    -153.7777838101774250    -1.96e-06  1.65e-05  5.59e-04  1.26e-04     0.3
   11    -153.7777842851632499    -4.75e-07  4.23e-06  1.33e-04  4.67e-05     0.3
   12    -153.7777843469007166    -6.17e-08  1.75e-06  1.17e-04  1.36e-05     0.3
   13    -153.7777843547877410    -7.89e-09  5.91e-07  1.44e-05  6.28e-06     0.3
                 **** Energy Check signals convergence ****

               *****************************************************
               *                     SUCCESS                       *
               *           SCF CONVERGED AFTER  13 CYCLES          *
               *****************************************************

Recomputing exchange energy using gridx3       ... done (    0.413 sec)
Old exchange energy                            :     -6.201966363 Eh
New exchange energy                            :     -6.201975292 Eh
Exchange energy change after final integration :     -0.000008929 Eh
Total energy after final integration           :   -153.777793284 Eh
             **** ENERGY FILE WAS UPDATED (orca.en.tmp) ****

----------------
TOTAL SCF ENERGY
----------------

Total Energy       :       -153.77779328374751 Eh           -4184.50649 eV

Components:
Nuclear Repulsion  :         69.46943018006046 Eh            1890.35930 eV
Electronic Energy  :       -223.24721453484818 Eh           -6074.86555 eV
One Electron Energy:       -345.24367429209713 Eh           -9394.55799 eV
Two Electron Energy:        121.99645975724893 Eh            3319.69244 eV

Virial components:
Potential Energy   :       -307.36846185786601 Eh           -8363.92106 eV
Kinetic Energy     :        153.59066857411847 Eh            4179.41457 eV
Virial Ratio       :          2.00121833384389

DFT components:
N(Alpha)           :       12.999996558887 electrons
N(Beta)            :       11.000000617209 electrons
N(Total)           :       23.999997176095 electrons
E(XC)              :      -14.754667240812 Eh       

---------------
SCF CONVERGENCE
---------------

  Last Energy change         ...    7.8870e-09  Tolerance :   1.0000e-08
  Last MAX-Density change    ...    1.4366e-05  Tolerance :   1.0000e-07
  Last RMS-Density change    ...    5.9067e-07  Tolerance :   5.0000e-09
  Last DIIS Error            ...    2.8114e-03  Tolerance :   5.0000e-07
  Last Orbital Gradient      ...    6.2821e-06  Tolerance :   1.0000e-05
  Last Orbital Rotation      ...    2.2100e-05  Tolerance :   1.0000e-05


----------------------
UHF SPIN CONTAMINATION
----------------------

Warning: in a DFT calculation there is little theoretical justification to 
         calculate <S**2> as in Hartree-Fock theory. We will do it anyways
         but you should keep in mind that the values have only limited relevance

Expectation value of <S**2>     :     2.006109
Ideal value S*(S+1) for S=1.0   :     2.000000
Deviation                       :     0.006109

----------------
ORBITAL ENERGIES
----------------
                 SPIN UP ORBITALS
  NO   OCC          E(Eh)            E(eV) 
   0   1.0000     -19.406325      -528.0729 
   1   1.0000     -10.380439      -282.4661 
   2   1.0000     -10.370112      -282.1851 
   3   1.0000      -1.243114       -33.8269 
   4   1.0000      -0.887973       -24.1630 
   5   1.0000      -0.715791       -19.4777 
   6   1.0000      -0.629970       -17.1423 
   7   1.0000      -0.589331       -16.0365 
   8   1.0000      -0.580674       -15.8009 
   9   1.0000      -0.517059       -14.0699 
  10   1.0000      -0.516403       -14.0520 
  11   1.0000      -0.425615       -11.5816 
  12   1.0000      -0.217537        -5.9195 
  13   0.0000       0.038320         1.0427 
  14   0.0000       0.059824         1.6279 
  15   0.0000       0.077671         2.1135 
  16   0.0000       0.087476         2.3803 
  17   0.0000       0.106470         2.8972 
  18   0.0000       0.127950         3.4817 
  19   0.0000       0.128803         3.5049 
  20   0.0000       0.132812         3.6140 
  21   0.0000       0.168467         4.5842 
  22   0.0000       0.183328         4.9886 
  23   0.0000       0.201515         5.4835 

                 SPIN DOWN ORBITALS
  NO   OCC          E(Eh)            E(eV) 
   0   1.0000     -19.379199      -527.3348 
   1   1.0000     -10.370189      -282.1872 
   2   1.0000     -10.368143      -282.1315 
   3   1.0000      -1.186950       -32.2985 
   4   1.0000      -0.868969       -23.6458 
   5   1.0000      -0.669990       -18.2314 
   6   1.0000      -0.585240       -15.9252 
   7   1.0000      -0.541779       -14.7426 
   8   1.0000      -0.535771       -14.5791 
   9   1.0000      -0.497696       -13.5430 
  10   1.0000      -0.471525       -12.8309 
  11   0.0000      -0.082181        -2.2363 
  12   0.0000       0.039331         1.0702 
  13   0.0000       0.059488         1.6188 
  14   0.0000       0.077271         2.1027 
  15   0.0000       0.084856         2.3090 
  16   0.0000       0.094737         2.5779 
  17   0.0000       0.107004         2.9117 
  18   0.0000       0.127893         3.4801 
  19   0.0000       0.128518         3.4971 
  20   0.0000       0.133494         3.6325 
  21   0.0000       0.168375         4.5817 
*Only the first 10 virtual orbitals were printed.

                    ********************************
                    * MULLIKEN POPULATION ANALYSIS *
                    ********************************

--------------------------------------------
MULLIKEN ATOMIC CHARGES AND SPIN POPULATIONS
--------------------------------------------
   0 O :   -0.324526    0.939675
   1 C :    0.012696    0.771373
   2 C :   -0.584472    0.110167
   3 H :    0.210406    0.109939
   4 H :    0.215860    0.030473
   5 H :    0.254048    0.007919
   6 H :    0.215989    0.030453
Sum of atomic charges         :    0.0000000
Sum of atomic spin populations:    2.0000000

-----------------------------------------------------
MULLIKEN REDUCED ORBITAL CHARGES AND SPIN POPULATIONS
-----------------------------------------------------
CHARGE
  0 O s       :     4.018672  s :     4.018672
      pz      :     1.444798  p :     4.249732
      px      :     1.369421
      py      :     1.435514
      dz2     :     0.005413  d :     0.054175
      dxz     :     0.007406
      dyz     :     0.013141
      dx2y2   :     0.018379
      dxy     :     0.009836
      f0      :     0.000191  f :     0.001947
      f+1     :     0.000106
      f-1     :     0.000286
      f+2     :     0.000158
      f-2     :     0.000324
      f+3     :     0.000317
      f-3     :     0.000564

  1 C s       :     3.266999  s :     3.266999
      pz      :     1.004152  p :     2.612962
      px      :     0.829973
      py      :     0.778837
      dz2     :     0.012431  d :     0.091303
      dxz     :     0.004938
      dyz     :     0.035497
      dx2y2   :     0.030476
      dxy     :     0.007961
      f0      :     0.001540  f :     0.016041
      f+1     :     0.001166
      f-1     :     0.002205
      f+2     :     0.001145
      f-2     :     0.002778
      f+3     :     0.002751
      f-3     :     0.004457

  2 C s       :     3.342162  s :     3.342162
      pz      :     1.165072  p :     3.160851
      px      :     0.882384
      py      :     1.113395
      dz2     :    -0.004234  d :     0.078853
      dxz     :     0.025207
      dyz     :     0.026764
      dx2y2   :     0.029148
      dxy     :     0.001968
      f0      :     0.000147  f :     0.002605
      f+1     :     0.000571
      f-1     :     0.000091
      f+2     :     0.000249
      f-2     :     0.000560
      f+3     :     0.000552
      f-3     :     0.000434

  3 H s       :     0.735866  s :     0.735866
      pz      :     0.019422  p :     0.050680
      px      :     0.013094
      py      :     0.018165
      dz2     :     0.000847  d :     0.003047
      dxz     :     0.000467
      dyz     :     0.000746
      dx2y2   :     0.000558
      dxy     :     0.000430

  4 H s       :     0.730810  s :     0.730810
      pz      :     0.014905  p :     0.051138
      px      :     0.007748
      py      :     0.028484
      dz2     :     0.000252  d :     0.002193
      dxz     :     0.000168
      dyz     :     0.000574
      dx2y2   :     0.000480
      dxy     :     0.000720

  5 H s       :     0.706603  s :     0.706603
      pz      :     0.018439  p :     0.037192
      px      :     0.011895
      py      :     0.006858
      dz2     :     0.000568  d :     0.002157
      dxz     :     0.000444
      dyz     :     0.000435
      dx2y2   :     0.000413
      dxy     :     0.000297

  6 H s       :     0.730608  s :     0.730608
      pz      :     0.014815  p :     0.051210
      px      :     0.017933
      py      :     0.018462
      dz2     :     0.000682  d :     0.002193
      dxz     :     0.000485
      dyz     :     0.000523
      dx2y2   :     0.000217
      dxy     :     0.000287


SPIN
  0 O s       :    -0.000827  s :    -0.000827
      pz      :     0.428146  p :     0.930633
      px      :     0.393275
      py      :     0.109212
      dz2     :     0.001019  d :     0.010032
      dxz     :     0.003103
      dyz     :     0.001281
      dx2y2   :     0.005059
      dxy     :    -0.000429
      f0      :     0.000001  f :    -0.000163
      f+1     :    -0.000016
      f-1     :    -0.000006
      f+2     :    -0.000019
      f-2     :    -0.000018
      f+3     :    -0.000106
      f-3     :     0.000001

  1 C s       :    -0.009224  s :    -0.009224
      pz      :     0.360193  p :     0.703536
      px      :     0.176577
      py      :     0.166766
      dz2     :     0.014401  d :     0.076482
      dxz     :     0.000684
      dyz     :     0.026425
      dx2y2   :     0.015519
      dxy     :     0.019453
      f0      :     0.000014  f :     0.000580
      f+1     :     0.000266
      f-1     :    -0.000200
      f+2     :     0.000300
      f-2     :    -0.000193
      f+3     :    -0.000147
      f-3     :     0.000539

  2 C s       :     0.066032  s :     0.066032
      pz      :    -0.010368  p :     0.028466
      px      :     0.038741
      py      :     0.000092
      dz2     :    -0.014128  d :     0.014656
      dxz     :     0.006275
      dyz     :     0.009076
      dx2y2   :     0.018354
      dxy     :    -0.004920
      f0      :     0.000047  f :     0.001013
      f+1     :     0.000353
      f-1     :     0.000021
      f+2     :    -0.000012
      f-2     :     0.000215
      f+3     :     0.000329
      f-3     :     0.000061

  3 H s       :     0.078854  s :     0.078854
      pz      :     0.015654  p :     0.030156
      px      :     0.006362
      py      :     0.008141
      dz2     :     0.000624  d :     0.000928
      dxz     :     0.000018
      dyz     :    -0.000007
      dx2y2   :     0.000040
      dxy     :     0.000253

  4 H s       :     0.022554  s :     0.022554
      pz      :     0.001017  p :     0.007746
      px      :     0.005020
      py      :     0.001708
      dz2     :     0.000002  d :     0.000174
      dxz     :     0.000003
      dyz     :     0.000030
      dx2y2   :     0.000034
      dxy     :     0.000105

  5 H s       :     0.008260  s :     0.008260
      pz      :    -0.000740  p :    -0.000460
      px      :    -0.000141
      py      :     0.000422
      dz2     :     0.000016  d :     0.000120
      dxz     :     0.000036
      dyz     :     0.000015
      dx2y2   :     0.000047
      dxy     :     0.000004

  6 H s       :     0.022491  s :     0.022491
      pz      :    -0.000312  p :     0.007788
      px      :     0.008543
      py      :    -0.000443
      dz2     :     0.000080  d :     0.000174
      dxz     :     0.000027
      dyz     :     0.000021
      dx2y2   :     0.000019
      dxy     :     0.000026



                     *******************************
                     * LOEWDIN POPULATION ANALYSIS *
                     *******************************

-------------------------------------------
LOEWDIN ATOMIC CHARGES AND SPIN POPULATIONS
-------------------------------------------
   0 O :    0.160032    0.944296
   1 C :   -0.289272    0.658810
   2 C :    0.142673    0.176580
   3 H :    0.036152    0.154953
   4 H :   -0.020445    0.030259
   5 H :   -0.008683    0.004874
   6 H :   -0.020457    0.030229

----------------------------------------------------
LOEWDIN REDUCED ORBITAL CHARGES AND SPIN POPULATIONS
----------------------------------------------------
CHARGE
  0 O s       :     3.378351  s :     3.378351
      pz      :     1.329623  p :     4.160068
      px      :     1.317319
      py      :     1.513126
      dz2     :     0.032510  d :     0.293288
      dxz     :     0.030698
      dyz     :     0.073144
      dx2y2   :     0.089937
      dxy     :     0.066999
      f0      :     0.000759  f :     0.008261
      f+1     :     0.000425
      f-1     :     0.001254
      f+2     :     0.000598
      f-2     :     0.001476
      f+3     :     0.001385
      f-3     :     0.002364

  1 C s       :     2.676358  s :     2.676358
      pz      :     0.869195  p :     2.644370
      px      :     0.890475
      py      :     0.884700
      dz2     :     0.102304  d :     0.862793
      dxz     :     0.143347
      dyz     :     0.154422
      dx2y2   :     0.230338
      dxy     :     0.232381
      f0      :     0.009264  f :     0.105752
      f+1     :     0.007901
      f-1     :     0.014568
      f+2     :     0.008779
      f-2     :     0.018458
      f+3     :     0.018672
      f-3     :     0.028110

  2 C s       :     2.643048  s :     2.643048
      pz      :     0.925059  p :     2.691710
      px      :     0.861814
      py      :     0.904836
      dz2     :     0.051328  d :     0.489284
      dxz     :     0.150732
      dyz     :     0.071323
      dx2y2   :     0.133564
      dxy     :     0.082338
      f0      :     0.003336  f :     0.033284
      f+1     :     0.007010
      f-1     :     0.003046
      f+2     :     0.003434
      f-2     :     0.004820
      f+3     :     0.006359
      f-3     :     0.005280

  3 H s       :     0.651915  s :     0.651915
      pz      :     0.111432  p :     0.281914
      px      :     0.083695
      py      :     0.086787
      dz2     :     0.008714  d :     0.030019
      dxz     :     0.005338
      dyz     :     0.006930
      dx2y2   :     0.004246
      dxy     :     0.004791

  4 H s       :     0.701291  s :     0.701291
      pz      :     0.084768  p :     0.288795
      px      :     0.077779
      py      :     0.126248
      dz2     :     0.003959  d :     0.030360
      dxz     :     0.001785
      dyz     :     0.008790
      dx2y2   :     0.007702
      dxy     :     0.008124

  5 H s       :     0.702760  s :     0.702760
      pz      :     0.104202  p :     0.275985
      px      :     0.083210
      py      :     0.088572
      dz2     :     0.008164  d :     0.029939
      dxz     :     0.006708
      dyz     :     0.006003
      dx2y2   :     0.004476
      dxy     :     0.004589

  6 H s       :     0.701283  s :     0.701283
      pz      :     0.113298  p :     0.288812
      px      :     0.097029
      py      :     0.078486
      dz2     :     0.008658  d :     0.030363
      dxz     :     0.008469
      dyz     :     0.006879
      dx2y2   :     0.002945
      dxy     :     0.003411


SPIN
  0 O s       :     0.009541  s :     0.009541
      pz      :     0.379681  p :     0.816008
      px      :     0.337966
      py      :     0.098361
      dz2     :     0.011432  d :     0.115567
      dxz     :     0.021158
      dyz     :     0.028490
      dx2y2   :     0.046881
      dxy     :     0.007606
      f0      :     0.000283  f :     0.003181
      f+1     :     0.000100
      f-1     :     0.000617
      f+2     :     0.000090
      f-2     :     0.000801
      f+3     :    -0.000006
      f-3     :     0.001296

  1 C s       :     0.006640  s :     0.006640
      pz      :     0.218161  p :     0.432972
      px      :     0.111535
      py      :     0.103275
      dz2     :     0.028903  d :     0.190334
      dxz     :     0.003498
      dyz     :     0.065063
      dx2y2   :     0.040168
      dxy     :     0.052701
      f0      :     0.001661  f :     0.028865
      f+1     :     0.002355
      f-1     :     0.003201
      f+2     :     0.003729
      f-2     :     0.006120
      f+3     :     0.001315
      f-3     :     0.010485

  2 C s       :     0.008653  s :     0.008653
      pz      :     0.004551  p :     0.056962
      px      :     0.039755
      py      :     0.012656
      dz2     :     0.004427  d :     0.103651
      dxz     :     0.025615
      dyz     :     0.024565
      dx2y2   :     0.047513
      dxy     :     0.001531
      f0      :     0.000227  f :     0.007313
      f+1     :     0.002627
      f-1     :     0.000332
      f+2     :     0.000088
      f-2     :     0.001426
      f+3     :     0.002366
      f-3     :     0.000247

  3 H s       :     0.083741  s :     0.083741
      pz      :     0.032737  p :     0.063859
      px      :     0.014698
      py      :     0.016425
      dz2     :     0.005438  d :     0.007352
      dxz     :     0.000073
      dyz     :    -0.000141
      dx2y2   :    -0.000015
      dxy     :     0.001997

  4 H s       :     0.018943  s :     0.018943
      pz      :     0.001111  p :     0.010361
      px      :     0.004536
      py      :     0.004714
      dz2     :    -0.000006  d :     0.000955
      dxz     :     0.000029
      dyz     :     0.000106
      dx2y2   :     0.000239
      dxy     :     0.000587

  5 H s       :     0.002097  s :     0.002097
      pz      :     0.000121  p :     0.001834
      px      :     0.001538
      py      :     0.000175
      dz2     :     0.000057  d :     0.000943
      dxz     :     0.000278
      dyz     :     0.000175
      dx2y2   :     0.000426
      dxy     :     0.000008

  6 H s       :     0.018921  s :     0.018921
      pz      :     0.000031  p :     0.010352
      px      :     0.008683
      py      :     0.001639
      dz2     :     0.000432  d :     0.000956
      dxz     :     0.000135
      dyz     :     0.000137
      dx2y2   :     0.000111
      dxy     :     0.000140



                      *****************************
                      * MAYER POPULATION ANALYSIS *
                      *****************************

  NA   - Mulliken gross atomic population
  ZA   - Total nuclear charge
  QA   - Mulliken gross atomic charge
  VA   - Mayer's total valence
  BVA  - Mayer's bonded valence
  FA   - Mayer's free valence

  ATOM       NA         ZA         QA         VA         BVA        FA
  0 O      8.3245     8.0000    -0.3245     2.0412     1.4534     0.5878
  1 C      5.9873     6.0000     0.0127     3.3393     2.7930     0.5463
  2 C      6.5845     6.0000    -0.5845     3.6041     3.5900     0.0140
  3 H      0.7896     1.0000     0.2104     0.9692     0.9591     0.0101
  4 H      0.7841     1.0000     0.2159     1.0259     1.0250     0.0009
  5 H      0.7460     1.0000     0.2540     0.9902     0.9901     0.0001
  6 H      0.7840     1.0000     0.2160     1.0256     1.0247     0.0009

  Mayer bond orders larger than 0.100000
B(  0-O ,  1-C ) :   1.3082 B(  1-C ,  2-C ) :   0.6198 B(  1-C ,  3-H ) :   0.9318 
B(  2-C ,  4-H ) :   1.0135 B(  2-C ,  5-H ) :   0.9247 B(  2-C ,  6-H ) :   1.0131 


-------
TIMINGS
-------

Total SCF time: 0 days 0 hours 0 min 5 sec 

Total time                  ....       5.024 sec
Sum of individual times     ....       5.016 sec  ( 99.8%)

SCF preparation             ....       0.414 sec  (  8.2%)
Fock matrix formation       ....       4.084 sec  ( 81.3%)
  Startup                   ....       0.028 sec  (  0.7% of F)
  Split-RI-J                ....       0.177 sec  (  4.3% of F)
  Chain of spheres X        ....       2.659 sec  ( 65.1% of F)
  XC integration            ....       1.131 sec  ( 27.7% of F)
    Basis function eval.    ....       0.080 sec  (  7.1% of XC)
    Density eval.           ....       0.346 sec  ( 30.6% of XC)
    XC-Functional eval.     ....       0.033 sec  (  2.9% of XC)
    XC-Potential eval.      ....       0.584 sec  ( 51.7% of XC)
Diagonalization             ....       0.000 sec  (  0.0%)
Density matrix formation    ....       0.061 sec  (  1.2%)
Total Energy calculation    ....       0.042 sec  (  0.8%)
Population analysis         ....       0.020 sec  (  0.4%)
Orbital Transformation      ....       0.045 sec  (  0.9%)
Orbital Orthonormalization  ....       0.000 sec  (  0.0%)
DIIS solution               ....       0.230 sec  (  4.6%)
SOSCF solution              ....       0.119 sec  (  2.4%)
Finished LeanSCF after   5.0 sec

Maximum memory used throughout the entire LEANSCF-calculation: 14.7 MB
[1739830682.894603] [ohm:3856942:0]        ib_iface.c:1059 UCX  ERROR ibv_create_cq(cqe=256) failed: Connection timed out
[1739830682.898630] [ohm:3856938:0]        ib_iface.c:1059 UCX  ERROR ibv_create_cq(cqe=256) failed: Connection timed out
[1739830682.907375] [ohm:3856940:0]        ib_iface.c:1059 UCX  ERROR ibv_create_cq(cqe=256) failed: Connection timed out
[1739830682.909683] [ohm:3856941:0]        ib_iface.c:1059 UCX  ERROR ibv_create_cq(cqe=256) failed: Connection timed out
[1739830682.909929] [ohm:3856939:0]        ib_iface.c:1059 UCX  ERROR ibv_create_cq(cqe=256) failed: Connection timed out
[1739830682.910881] [ohm:3856937:0]        ib_iface.c:1059 UCX  ERROR ibv_create_cq(cqe=256) failed: Connection timed out
[1739830682.911942] [ohm:3856944:0]        ib_iface.c:1059 UCX  ERROR ibv_create_cq(cqe=256) failed: Connection timed out
[1739830682.911940] [ohm:3856948:0]        ib_iface.c:1059 UCX  ERROR ibv_create_cq(cqe=256) failed: Connection timed out
[1739830682.917114] [ohm:3856943:0]        ib_iface.c:1059 UCX  ERROR ibv_create_cq(cqe=256) failed: Connection timed out
[1739830682.917134] [ohm:3856945:0]        ib_iface.c:1059 UCX  ERROR ibv_create_cq(cqe=256) failed: Connection timed out
[1739830682.920248] [ohm:3856951:0]        ib_iface.c:1059 UCX  ERROR ibv_create_cq(cqe=256) failed: Connection timed out
[1739830682.920297] [ohm:3856949:0]        ib_iface.c:1059 UCX  ERROR ibv_create_cq(cqe=256) failed: Connection timed out
[1739830682.932217] [ohm:3856966:0]        ib_iface.c:1059 UCX  ERROR ibv_create_cq(cqe=256) failed: Connection timed out
[1739830682.935511] [ohm:3856960:0]        ib_iface.c:1059 UCX  ERROR ibv_create_cq(cqe=256) failed: Connection timed out
[1739830682.936900] [ohm:3856955:0]        ib_iface.c:1059 UCX  ERROR ibv_create_cq(cqe=256) failed: Connection timed out
[1739830682.936899] [ohm:3856963:0]        ib_iface.c:1059 UCX  ERROR ibv_create_cq(cqe=256) failed: Connection timed out


           ************************************************************
           *        Program running with 16 parallel MPI-processes    *
           *              working on a common directory               *
           ************************************************************

------------------------------------------------------------------------------
                         ORCA PROPERTY INTEGRAL CALCULATIONS
------------------------------------------------------------------------------

GBWName                                   ... orca.gbw
Number of atoms                           ...      7
Number of basis functions                 ...    182
Max core memory                           ...   1024 MB

Dipole integrals                          ... YES
Quadrupole integrals                      ...  NO
Linear momentum integrals                 ... YES
Angular momentum integrals                ... YES
Higher moments length integrals           ...  NO
Higher moments velocity integrals         ...  NO
Kinetic energy integrals                  ...  NO
GIAO right hand sides                     ...  NO
GIAO dipole derivative integrals          ...  NO
SOC integrals                             ...  NO
EPR diamagnetic integrals (GIAO)          ...  NO
EPR gauge integrals                       ...  NO
Field gradient integrals                  ...  NO (   0 nuclei)
Spin-dipole/Fermi contact integrals       ...  NO (   0 nuclei)
Contact density integrals                 ...  NO (   0 nuclei)
Nucleus-orbit integrals                   ...  NO (   0 nuclei)
Geometric perturbations                   ...  NO (   7 nuclei)

Choice of electric origin   ... Center of mass
Position of electric origin ... (  1.3821,  0.1861, -0.0651) 
Choice of magnetic origin   ... GIAO
Position of magnetic origin ... (  0.0000,  0.0000,  0.0000) 

Calculating integrals                     ... Electric Dipole (Length)     done (  0.0 sec)
Calculating integrals                     ... Linear Momentum              done (  0.0 sec)
Calculating integrals                     ... Angular Momentum  (ElOri)    done (  0.0 sec)

Property integrals calculated in   0.0 sec

Maximum memory used throughout the entire PROPINT-calculation: 10.3 MB
[1739830683.607505] [ohm:3857021:0]        ib_iface.c:1059 UCX  ERROR ibv_create_cq(cqe=256) failed: Connection timed out
[1739830683.609559] [ohm:3857025:0]        ib_iface.c:1059 UCX  ERROR ibv_create_cq(cqe=256) failed: Connection timed out
[1739830683.610782] [ohm:3857023:0]        ib_iface.c:1059 UCX  ERROR ibv_create_cq(cqe=256) failed: Connection timed out
[1739830683.610781] [ohm:3857027:0]        ib_iface.c:1059 UCX  ERROR ibv_create_cq(cqe=256) failed: Connection timed out
[1739830683.613072] [ohm:3857022:0]        ib_iface.c:1059 UCX  ERROR ibv_create_cq(cqe=256) failed: Connection timed out
[1739830683.613255] [ohm:3857020:0]        ib_iface.c:1059 UCX  ERROR ibv_create_cq(cqe=256) failed: Connection timed out
[1739830683.613355] [ohm:3857024:0]        ib_iface.c:1059 UCX  ERROR ibv_create_cq(cqe=256) failed: Connection timed out
[1739830683.613470] [ohm:3857026:0]        ib_iface.c:1059 UCX  ERROR ibv_create_cq(cqe=256) failed: Connection timed out
[1739830683.617895] [ohm:3857037:0]        ib_iface.c:1059 UCX  ERROR ibv_create_cq(cqe=256) failed: Connection timed out
[1739830683.620492] [ohm:3857033:0]        ib_iface.c:1059 UCX  ERROR ibv_create_cq(cqe=256) failed: Connection timed out
[1739830683.637988] [ohm:3857028:0]        ib_iface.c:1059 UCX  ERROR ibv_create_cq(cqe=256) failed: Connection timed out
[1739830683.637983] [ohm:3857042:0]        ib_iface.c:1059 UCX  ERROR ibv_create_cq(cqe=256) failed: Connection timed out
[1739830683.639607] [ohm:3857029:0]        ib_iface.c:1059 UCX  ERROR ibv_create_cq(cqe=256) failed: Connection timed out
[1739830683.639624] [ohm:3857045:0]        ib_iface.c:1059 UCX  ERROR ibv_create_cq(cqe=256) failed: Connection timed out
[1739830683.640673] [ohm:3857052:0]        ib_iface.c:1059 UCX  ERROR ibv_create_cq(cqe=256) failed: Connection timed out
[1739830683.641815] [ohm:3857049:0]        ib_iface.c:1059 UCX  ERROR ibv_create_cq(cqe=256) failed: Connection timed out


           ************************************************************
           *        Program running with 16 parallel MPI-processes    *
           *              working on a common directory               *
           ************************************************************
------------------------------------------------------------------------------
                        ORCA TD-DFT/TDA CALCULATION
------------------------------------------------------------------------------

Input orbitals are from        ... orca.gbw
CI-vector output               ... orca.cis
Solver                         ... FN-2001
Tamm-Dancoff approximation     ... operative
CIS-Integral strategy          ... AO-integrals
Integral handling              ... AO integral Direct
Max. core memory used          ... 512 MB
Reference state                ... UHF
Follow IRoot                   ... off
Number of operators            ... 2
Orbital ranges used for CIS calculation:
 Operator 0:  Orbitals   3... 12  to  11...181

-------------------
XC-INTEGRATION GRID
-------------------

General Integration Accuracy     IntAcc      ... 3.467
Radial Grid Type                 RadialGrid  ... OptM3 with GC (2021)
Angular Grid (max. ang.)         AngularGrid ... 1 (Lebedev-50)
Angular grid pruning method      GridPruning ... 4 (adaptive)
Weight generation scheme         WeightScheme... mBecke (2022)
Basis function cutoff            BFCut       ... 1.0000e-11
Integration weight cutoff        WCut        ... 1.0000e-14
Partially contracted basis set               ... off
Rotationally invariant grid construction     ... off
Angular grids for H and He will be reduced by one unit
Diffuse basis detected: some atoms will have their outermost
                        angular grid increased by 1.

Total number of grid points                  ...     4736
Total number of batches                      ...       76
Average number of points per batch           ...       62
Average number of grid points per atom       ...      677

---------------------
COSX-INTEGRATION GRID
---------------------

General Integration Accuracy     IntAcc      ... 3.067
Radial Grid Type                 RadialGrid  ... OptM3 with GC (2021)
Angular Grid (max. ang.)         AngularGrid ... 1 (Lebedev-50)
Angular grid pruning method      GridPruning ... 4 (adaptive)
Weight generation scheme         WeightScheme... mBecke (2022)
Basis function cutoff            BFCut       ... 1.0000e-11
Integration weight cutoff        WCut        ... 1.0000e-14
Partially contracted basis set               ... on
Rotationally invariant grid construction     ... off
Angular grids for H and He will be reduced by one unit
Diffuse basis detected: some atoms will have their outermost
                        angular grid increased by 1.

Total number of grid points                  ...     2154
Total number of batches                      ...       22
Average number of points per batch           ...       97
Average number of grid points per atom       ...      308

---------------
TD-DFT XC SETUP
---------------

DFT calculation                         ... on
Name of the grid file                   ... orca.grid_cis.tmp
RI-approximation                        ... on
Aux-basis dimension                     ... 0
Functional (TD-DFT)
  Functional kind                       .... Exchange-Correlation
  Functional name                       .... wB97M-V exchange-correlation functional
  Functional family                     .... Hybrid MGGA
  Functional refs                              
    [ 0] N. Mardirossian and M. Head-Gordon.,  J. Chem. Phys. 144, 214110 (2016), doi: 10.1063/1.4952647
  Fraction of HF Exchange (short range) .... 0.1500
  Fraction of HF Exchange (long range)  .... 1.0000
  Range separation parameter mu         .... 0.3000
  Functional external parameters        .... 17
    Parameter  0 _cx00      =  8.500000e-01 : u^00 coefficient for exchange
    Parameter  1 _cx01      =  1.007000e+00 : u^01 coefficient for exchange
    Parameter  2 _cx10      =  2.590000e-01 : u^10 coefficient for exchange
    Parameter  3 _css00     =  4.430000e-01 : u^00 coefficient for same-spin correlation
    Parameter  4 _css04     = -1.437000e+00 : u^04 coefficient for same-spin correlation
    Parameter  5 _css10     = -4.535000e+00 : u^10 coefficient for same-spin correlation
    Parameter  6 _css20     = -3.390000e+00 : u^20 coefficient for same-spin correlation
    Parameter  7 _css43     =  4.278000e+00 : u^43 coefficient for same-spin correlation
    Parameter  8 _cos00     =  1.000000e+00 : u^00 coefficient for opposite-spin correlation
    Parameter  9 _cos10     =  1.358000e+00 : u^10 coefficient for opposite-spin correlation
    Parameter 10 _cos20     =  2.924000e+00 : u^20 coefficient for opposite-spin correlation
    Parameter 11 _cos21     = -8.812000e+00 : u^21 coefficient for opposite-spin correlation
    Parameter 12 _cos60     = -1.390000e+00 : u^60 coefficient for opposite-spin correlation
    Parameter 13 _cos61     =  9.142000e+00 : u^61 coefficient for opposite-spin correlation
    Parameter 14 _alpha     =  1.000000e+00 : fraction of HF exchange
    Parameter 15 _beta      = -8.500000e-01 : fraction of short-range exchange
    Parameter 16 _omega     =  3.000000e-01 : range-separation constant
Hybrid DFT                              ... on
   Exchange mixing (TD-DFT)             ...  0.150
   GGA exch. scaling (TD-DFT)           ...  0.000
   GGA corr. scaling (TD-DFT)           ...  1.000
Range-Separated Exchange                ... on
   Range Range separation parameter mu  .... 0.300
   Max. amount of RS exchange (TD-DFT)  ...  0.850

Building densities             ... done
Calculating rho(r) on the grid ... done
Building xc-kernel on the grid ... done
                    *** TD-DFT CALCULATION INITIALIZED ***

------------------------
DAVIDSON-DIAGONALIZATION
------------------------

Dimension of the eigenvalue problem            ...   1710
Number of roots to be determined               ...      2
Maximum size of the expansion space            ...     20
Maximum number of iterations                   ...    100
Convergence tolerance for the residual         ...    2.500e-07
Convergence tolerance for the energies         ...    2.500e-07
Orthogonality tolerance                        ...    1.000e-14
Level Shift                                    ...    0.000e+00
Constructing the preconditioner                ... o.k.
Building the initial guess                     ... o.k.
Number of trial vectors determined             ...     20


                       ****Iteration    0****
   Time for iteration     :  TOTAL=0.2 TRAFO=0.0 COSX=0.2
   Size of expansion space: 6
   Lowest Energy          :    -0.133290989028
   Maximum Energy change  :     0.133290989028 (vector 0)
   Maximum residual norm  :     0.004398912242

                       ****Iteration    1****
   Time for iteration     :  TOTAL=0.1 TRAFO=0.0 COSX=0.1
   Size of expansion space: 8
   Lowest Energy          :    -0.136560275532
   Maximum Energy change  :     0.012399718763 (vector 1)
   Maximum residual norm  :     0.000456750495

                       ****Iteration    2****
   Time for iteration     :  TOTAL=0.1 TRAFO=0.0 COSX=0.1
   Size of expansion space: 10
   Lowest Energy          :    -0.136593614355
   Maximum Energy change  :     0.001132958038 (vector 1)
   Maximum residual norm  :     0.000039928116

                       ****Iteration    3****
   Time for iteration     :  TOTAL=0.1 TRAFO=0.0 COSX=0.1
   Size of expansion space: 12
   Lowest Energy          :    -0.136594158913
   Maximum Energy change  :     0.000120063645 (vector 1)
   Maximum residual norm  :     0.000050590451

                       ****Iteration    4****
   Time for iteration     :  TOTAL=0.1 TRAFO=0.0 COSX=0.1
   Size of expansion space: 14
   Lowest Energy          :    -0.136594170557
   Maximum Energy change  :     0.015267855051 (vector 1)
   Maximum residual norm  :     0.007282554659

                       ****Iteration    5****
   Time for iteration     :  TOTAL=0.1 TRAFO=0.0 COSX=0.1
   Size of expansion space: 16
   Lowest Energy          :    -0.136594170787
   Maximum Energy change  :     0.006350535199 (vector 1)
   Maximum residual norm  :     0.000422571655

                       ****Iteration    6****
   Time for iteration     :  TOTAL=0.1 TRAFO=0.0 RIJ=0.0 COSX=0.1
   Size of expansion space: 18
   Lowest Energy          :    -0.136594170791
   Maximum Energy change  :     0.000359951622 (vector 1)
   Maximum residual norm  :     0.000036188969

                       ****Iteration    7****
   Time for iteration     :  TOTAL=0.1 TRAFO=0.0 COSX=0.1
   Size of expansion space: 20
   Lowest Energy          :    -0.136594170791
   Maximum Energy change  :     0.000033872993 (vector 1)
   Maximum residual norm  :     0.000002381179
   Rebuilding the expansion space

                       ****Iteration    8****
   Time for iteration     :  TOTAL=0.2 TRAFO=0.0 COSX=0.1
   Size of expansion space: 4
   Lowest Energy          :    -0.136593921171
   Maximum Energy change  :     0.000000249619 (vector 0)

         *** CONVERGENCE OF ENERGIES REACHED ***

Storing the converged CI vectors               ... orca.cis3

                 *** DAVIDSON DONE ***

Total time for solving the CIS problem:     1.372sec

---------------------
SF-TDA EXCITED STATES
---------------------

the weight of the individual excitations are printed if larger than 1.0e-02

UHF/UKS reference: multiplicity estimated based on rounded <S**2> value, RELEVANCE IS LIMITED!

(SPIN-FLIP GROUND STATE)
STATE  1:  E=  -0.136594 au     -3.717 eV   -29978.9 cm**-1 <S**2> =   0.019734 Mult 1
    12a ->  11b  :     0.977762 (c= -0.98881864)

STATE  2:  E=   0.033230 au      0.904 eV     7293.1 cm**-1 <S**2> =   1.148447 Mult 3
    12a ->  15b  :     0.225508 (c= -0.47487650)
    12a ->  16b  :     0.709306 (c= -0.84220333)
    12a ->  18b  :     0.016212 (c=  0.12732530)
    12a ->  21b  :     0.011380 (c=  0.10667543)
    12a ->  26b  :     0.021146 (c=  0.14541591)


-----------------------------
TD-DFT/TDA-EXCITATION SPECTRA
-----------------------------

Center of mass = (  1.3821,  0.1861, -0.0651)
Generating CIS-Spin-flip transition densities           ... done

UHF/UKS reference: multiplicity estimated based on rounded <S**2> value, use it judiciously!

----------------------------------------------------------------------------------------------------
          SPIN FLIP ABSORPTION SPECTRUM VIA TRANSITION ELECTRIC DIPOLE MOMENTS    
----------------------------------------------------------------------------------------------------
     Transition      Energy     Energy  Wavelength fosc(D2)      D2        DX        DY        DZ   
                      (eV)      (cm-1)    (nm)                 (au**2)    (au)      (au)      (au)  
----------------------------------------------------------------------------------------------------
  1-3A  ->  2-3A    4.621133   37272.0   268.3   0.000298218   0.00263  -0.02552   0.02575   0.03633

----------------------------------------------------------------------------------------------------
          SPIN FLIP ABSORPTION SPECTRUM VIA TRANSITION VELOCITY DIPOLE MOMENTS    
----------------------------------------------------------------------------------------------------
     Transition      Energy     Energy  Wavelength fosc(P2)      P2        PX        PY        PZ   
                      (eV)      (cm-1)    (nm)                 (au**2)    (au)      (au)      (au)  
----------------------------------------------------------------------------------------------------
[...]
      f-1     :     0.000341
      f+2     :    -0.000130
      f-2     :     0.000629
      f+3     :     0.000054
      f-3     :     0.000501
  2 C s       :    -0.001922  s :    -0.001922
      pz      :     0.000807  p :     0.004916
      px      :     0.004087
      py      :     0.000022
      dz2     :    -0.000121  d :    -0.005204
      dxz     :    -0.000932
      dyz     :    -0.001538
      dx2y2   :    -0.002714
      dxy     :     0.000102
      f0      :     0.000004  f :     0.000128
      f+1     :     0.000024
      f-1     :     0.000025
      f+2     :     0.000009
      f-2     :     0.000011
      f+3     :     0.000013
      f-3     :     0.000042
  3 H s       :     0.006276  s :     0.006276
      pz      :    -0.004123  p :    -0.009342
      px      :    -0.001479
      py      :    -0.003740
      dz2     :     0.000079  d :     0.000138
      dxz     :     0.000007
      dyz     :     0.000006
      dx2y2   :    -0.000025
      dxy     :     0.000071
  4 H s       :    -0.000748  s :    -0.000748
      pz      :    -0.000049  p :    -0.000575
      px      :    -0.000118
      py      :    -0.000408
      dz2     :    -0.000000  d :     0.000043
      dxz     :     0.000002
      dyz     :     0.000006
      dx2y2   :    -0.000016
      dxy     :     0.000051
  5 H s       :     0.000990  s :     0.000990
      pz      :     0.000022  p :     0.000515
      px      :     0.000200
      py      :     0.000293
      dz2     :     0.000005  d :     0.000028
      dxz     :    -0.000026
      dyz     :     0.000034
      dx2y2   :     0.000019
      dxy     :    -0.000004
  6 H s       :    -0.000734  s :    -0.000734
      pz      :     0.000140  p :    -0.000584
      px      :    -0.000368
      py      :    -0.000356
      dz2     :     0.000053  d :     0.000043
      dxz     :    -0.000006
      dyz     :    -0.000008
      dx2y2   :     0.000006
      dxy     :    -0.000003


                      *****************************
                      * MAYER POPULATION ANALYSIS *
                      *****************************

  NA   - Mulliken gross atomic population
  ZA   - Total nuclear charge
  QA   - Mulliken gross atomic charge
  VA   - Mayer's total valence
  BVA  - Mayer's bonded valence
  FA   - Mayer's free valence

  ATOM       NA         ZA         QA         VA         BVA        FA
  0 O      8.5061     8.0000    -0.5061     1.7159     1.8457    -0.1298
  1 C      5.7952     6.0000     0.2048     3.4237     3.4004     0.0233
  2 C      6.6942     6.0000    -0.6942     3.7618     3.7467     0.0151
  3 H      0.7228     1.0000     0.2772     0.9392     0.9298     0.0095
  4 H      0.7590     1.0000     0.2410     0.9805     0.9818    -0.0014
  5 H      0.7641     1.0000     0.2359     1.0312     1.0292     0.0020
  6 H      0.7586     1.0000     0.2414     0.9807     0.9821    -0.0014

  Mayer bond orders larger than 0.100000
B(  0-O ,  1-C ) :   1.7920 B(  1-C ,  2-C ) :   0.7389 B(  1-C ,  3-H ) :   0.9431 
B(  2-C ,  4-H ) :   0.9874 B(  2-C ,  5-H ) :   0.9669 B(  2-C ,  6-H ) :   0.9878 



-------
TIMINGS
-------

Total TD-DFT gradient time  ....        5.084 sec

Fock matrix formation       ....       1.061 sec  ( 20.9%)
  Coulomb formation         ....       0.827 sec  ( 77.9% of F)
  XC integration            ....       0.235 sec  ( 22.1% of F)
Z-vector equation           ....       1.487 sec  ( 29.2%)
Densities                   ....       0.000 sec  (  0.0%)
One electron gradient       ....       0.009 sec  (  0.2%)
Two electron gradient       ....       0.000 sec  (  0.0%)
RI-J Coulomb gradient       ....       0.094 sec  (  1.9%)
COSX gradient               ....       0.414 sec  (  8.1%)
XC gradient                 ....       1.811 sec  ( 35.6%)

Maximum memory used throughout the entire CIS-calculation: 35.8 MB
=> NOW LEAVING ORCA_CIS


-------------------------------------------------------------------------------
                          DFT DISPERSION CORRECTION                            
                                                                               
                              DFTD3 V3.1  Rev 1                                
                          USING Becke-Johnson damping                          
-------------------------------------------------------------------------------
The WB97M functional is recognized
Active option DFTDOPT                   ...         4   

molecular C6(AA) [au] = 395.091185 


            DFT-D V3
 parameters
 s6 scaling factor         :     1.0000 
 a1 scaling factor         :     0.5660 
 s8 scaling factor         :     0.3908 
 a2 scaling factor         :     3.1280 
 ad hoc parameters k1-k3   :    16.0000     1.3333    -4.0000 

 Edisp/kcal,au: -3.456863883435  -0.005508862667 
 E6   /kcal   :  -2.788592546 
 E8   /kcal   :  -0.668271337 
 % E8         :  19.331722616 

-------------------------   ----------------
Dispersion correction           -0.005508863
-------------------------   ----------------


-------------------------   --------------------
FINAL SINGLE POINT ENERGY      -153.919896067586
-------------------------   --------------------

[1739830690.866896] [ohm:3857141:0]        ib_iface.c:1059 UCX  ERROR ibv_create_cq(cqe=256) failed: Connection timed out
[1739830690.867821] [ohm:3857143:0]        ib_iface.c:1059 UCX  ERROR ibv_create_cq(cqe=256) failed: Connection timed out
[1739830690.867827] [ohm:3857145:0]        ib_iface.c:1059 UCX  ERROR ibv_create_cq(cqe=256) failed: Connection timed out
[1739830690.872127] [ohm:3857144:0]        ib_iface.c:1059 UCX  ERROR ibv_create_cq(cqe=256) failed: Connection timed out
[1739830690.879414] [ohm:3857147:0]        ib_iface.c:1059 UCX  ERROR ibv_create_cq(cqe=256) failed: Connection timed out
[1739830690.879399] [ohm:3857150:0]        ib_iface.c:1059 UCX  ERROR ibv_create_cq(cqe=256) failed: Connection timed out
[1739830690.886388] [ohm:3857140:0]        ib_iface.c:1059 UCX  ERROR ibv_create_cq(cqe=256) failed: Connection timed out
[1739830690.886388] [ohm:3857142:0]        ib_iface.c:1059 UCX  ERROR ibv_create_cq(cqe=256) failed: Connection timed out
[1739830690.886391] [ohm:3857146:0]        ib_iface.c:1059 UCX  ERROR ibv_create_cq(cqe=256) failed: Connection timed out
[1739830690.886675] [ohm:3857148:0]        ib_iface.c:1059 UCX  ERROR ibv_create_cq(cqe=256) failed: Connection timed out
[1739830690.887518] [ohm:3857154:0]        ib_iface.c:1059 UCX  ERROR ibv_create_cq(cqe=256) failed: Connection timed out
[1739830690.893199] [ohm:3857163:0]        ib_iface.c:1059 UCX  ERROR ibv_create_cq(cqe=256) failed: Connection timed out
[1739830690.893219] [ohm:3857168:0]        ib_iface.c:1059 UCX  ERROR ibv_create_cq(cqe=256) failed: Connection timed out
[1739830690.895585] [ohm:3857152:0]        ib_iface.c:1059 UCX  ERROR ibv_create_cq(cqe=256) failed: Connection timed out
[1739830690.917765] [ohm:3857166:0]        ib_iface.c:1059 UCX  ERROR ibv_create_cq(cqe=256) failed: Connection timed out
[1739830690.917955] [ohm:3857157:0]        ib_iface.c:1059 UCX  ERROR ibv_create_cq(cqe=256) failed: Connection timed out


           ************************************************************
           *        Program running with 16 parallel MPI-processes    *
           *              working on a common directory               *
           ************************************************************

------------------------------------------------------------------------------
                              ORCA PROPERTY CALCULATIONS
------------------------------------------------------------------------------

GBWName                                 ... orca.gbw
Number of atoms                         ...      7
Number of basis functions               ...    182
Max core memory                         ...   1024 MB

Electric properties:
Dipole moment                           ... YES
Quadrupole moment                       ...  NO
Static polarizability (Dipole/Dipole)   ...  NO
Static polarizability (Dipole/Quad.)    ...  NO
Static polarizability (Quad./Quad.)     ...  NO
Static polarizability (Velocity)        ...  NO

Atomic electric properties:
Dipole moment                           ...  NO
Quadrupole moment                       ...  NO
Static polarizability                   ...  NO

Choice of electric origin               ... Center of mass
Position of electric origin             ...     1.382134     0.186134    -0.065093

General magnetic properties:
Magnetizability                         ...  NO

EPR properties:
g-Tensor (aka g-matrix)                 ...  NO
Zero-Field splitting spin-orbit         ...  NO
Zero-field splitting spin-spin          ...  NO
Hyperfine couplings                     ...  NO (   0 nuclei)
Quadrupole couplings                    ...  NO (   0 nuclei)
Contact density                         ...  NO (   0 nuclei)

NMR properties:
Chemical shifts                         ...  NO (   0 nuclei)
Spin-rotation constants                 ...  NO (   0 nuclei)
Spin-spin couplings                     ...  NO (   0 nuclei,    0 pairs)

Choice of magnetic origin               ... GIAO
Position of magnetic origin             ...     0.000000     0.000000     0.000000

Properties with geometric perturbations:
SCF Hessian                             ...  NO
IR spectrum                             ...  NO
VCD spectrum                            ...  NO
X-ray spectroscopy properties:
SCF XES/XAS/RIXS spectra                ...  NO


-------------
DIPOLE MOMENT
-------------

Method             : SCF
Type of density    : Electron Density
Multiplicity       :   3
Irrep              :   0
Energy             :  -153.7777932837475134 Eh
Relativity type    : 
Basis              : AO
                                X                 Y                 Z
Electronic contribution:      2.697040379       2.843604926      -0.123443948
Nuclear contribution   :     -3.119364387      -3.408202294       0.227399421
                        -----------------------------------------
Total Dipole Moment    :     -0.422324008      -0.564597369       0.103955473
                        -----------------------------------------
Magnitude (a.u.)       :      0.712695234
Magnitude (Debye)      :      1.811527320



--------------------
Rotational spectrum 
--------------------
 
Rotational constants in cm-1:             2.270816             0.314016             0.290620 
Rotational constants in MHz :         68077.342622          9413.975657          8712.561571 

Dipole components along the rotational axes: 
x,y,z [a.u.] :     0.681153    -0.209679     0.000023 
x,y,z [Debye]:     1.731353    -0.532961     0.000057 

 

-------------
DIPOLE MOMENT
-------------

Method             : TDA/CIS
Type of density    : Electron Density
Level              : Relaxed density
State              :   1
Multiplicity       :   3
Irrep              :   0
Energy             :     0.0000000000000000 Eh
Relativity type    : 
Basis              : AO
                                X                 Y                 Z
Electronic contribution:      2.337573460       2.376090722      -0.043780446
Nuclear contribution   :     -3.119364387      -3.408202294       0.227399421
                        -----------------------------------------
Total Dipole Moment    :     -0.781790927      -1.032111572       0.183618975
                        -----------------------------------------
Magnitude (a.u.)       :      1.307733642
Magnitude (Debye)      :      3.323994756



--------------------
Rotational spectrum 
--------------------
 
Rotational constants in cm-1:             2.270816             0.314016             0.290620 
Rotational constants in MHz :         68077.342622          9413.975657          8712.561571 

Dipole components along the rotational axes: 
x,y,z [a.u.] :     1.252941    -0.374576    -0.000269 
x,y,z [Debye]:     3.184722    -0.952096    -0.000683 

 

Dipole moment calculation done in   0.0 sec 

Maximum memory used throughout the entire PROP-calculation: 7.5 MB
[1739830691.549827] [ohm:3857225:0]        ib_iface.c:1059 UCX  ERROR ibv_create_cq(cqe=256) failed: Connection timed out
[1739830691.549825] [ohm:3857227:0]        ib_iface.c:1059 UCX  ERROR ibv_create_cq(cqe=256) failed: Connection timed out
[1739830691.561946] [ohm:3857229:0]        ib_iface.c:1059 UCX  ERROR ibv_create_cq(cqe=256) failed: Connection timed out
[1739830691.562718] [ohm:3857226:0]        ib_iface.c:1059 UCX  ERROR ibv_create_cq(cqe=256) failed: Connection timed out
[1739830691.562847] [ohm:3857228:0]        ib_iface.c:1059 UCX  ERROR ibv_create_cq(cqe=256) failed: Connection timed out
[1739830691.562880] [ohm:3857224:0]        ib_iface.c:1059 UCX  ERROR ibv_create_cq(cqe=256) failed: Connection timed out
[1739830691.566808] [ohm:3857234:0]        ib_iface.c:1059 UCX  ERROR ibv_create_cq(cqe=256) failed: Connection timed out
[1739830691.577085] [ohm:3857231:0]        ib_iface.c:1059 UCX  ERROR ibv_create_cq(cqe=256) failed: Connection timed out
[1739830691.577637] [ohm:3857230:0]        ib_iface.c:1059 UCX  ERROR ibv_create_cq(cqe=256) failed: Connection timed out
[1739830691.578234] [ohm:3857232:0]        ib_iface.c:1059 UCX  ERROR ibv_create_cq(cqe=256) failed: Connection timed out
[1739830691.584677] [ohm:3857255:0]        ib_iface.c:1059 UCX  ERROR ibv_create_cq(cqe=256) failed: Connection timed out
[1739830691.584674] [ohm:3857241:0]        ib_iface.c:1059 UCX  ERROR ibv_create_cq(cqe=256) failed: Connection timed out
[1739830691.588826] [ohm:3857236:0]        ib_iface.c:1059 UCX  ERROR ibv_create_cq(cqe=256) failed: Connection timed out
[1739830691.594368] [ohm:3857251:0]        ib_iface.c:1059 UCX  ERROR ibv_create_cq(cqe=256) failed: Connection timed out
[1739830691.594390] [ohm:3857246:0]        ib_iface.c:1059 UCX  ERROR ibv_create_cq(cqe=256) failed: Connection timed out
[1739830691.595194] [ohm:3857249:0]        ib_iface.c:1059 UCX  ERROR ibv_create_cq(cqe=256) failed: Connection timed out

--------------------------------
SUGGESTED CITATIONS FOR THIS RUN
--------------------------------

Below you find a list of papers that are relevant to this ORCA run
We neither can nor want to force you to cite these papers, but we appreciate if you do
You receive ORCA, which is the product of decades of hard work by many enthusiastic individuals, for free
The only thing we kindly ask in return is that you cite our papers,
We deeply appreciate it, if you show your appreciation for ORCA by not just citing the generic ORCA reference.

Please note that relegating all ORCA citations to the supporting information does *not* help us.
SI sections are not indexed - citations you put there will not count into any citation statistics
But we need these citations in order to attract the funding resources that allow us to do what we are doing

Therefore, if you are a happy ORCA user, please consider citing a few of the papers listed below in the main body of your paper

In addition to the list printed below, the program has created the file orca.bibtex that contains the list in bibtex format
You can import this file easily into all common literature databanks and citation aid programs


List of essential papers. We consider these as the minimum necessary citations

  1. Neese,F.
     Software update: the ORCA program system, version 5.0
     WIRES Comput. Molec. Sci., 2022 12(1)e1606
     doi.org/10.1002/wcms.1606

List of papers to cite with high priority. The work reported in these papers was absolutely
necessary for this run to complete.
Our perspective: the developers of density functionals and basis sets usually get cited in chemistry papers
Good! But without the algorithms to do something with them, the functionals or basis sets would not do anything.
Hence, in our opinion, the algorithm design and method developments papers are equally worthy of getting cited

  1. Neese,F.; Olbrich,G.
     Efficient use of the resolution of the identity approximation in time-dependent density functional calculations with hybrid density functionals
     Chem. Phys. Lett., 2002 362 170-178
     doi.org/10.1016/s0009-2614(02)01053-9
  2. Neese,F.
     An improvement of the resolution of the identity approximation for the formation of the Coulomb matrix
     J. Comp. Chem., 2003 24(14)1740-1747
     doi.org/10.1002/jcc.10318
  3. Neese,F.; Wennmohs,F.; Hansen,A.; Becker,U.
     Efficient, approximate and parallel Hartree-Fock and hybrid DFT calculations. A 'chain-of-spheres' algorithm for the Hartree-Fock exchange
     Chem. Phys., 2009 356(1-3)98-109
     doi.org/10.1016/j.chemphys.2008.10.036
  4. Petrenko,T.; Kossmann,S.; Neese,F.
     Efficient time-dependent density functional theory approximations for hybrid density functionals: Analytical gradients and parallelization
     J. Chem. Phys., 2011 134 054116
     doi.org/10.1063/1.3533441
  5. Helmich-Paris,B.; de Souza,B.; Neese,F.; Izsák,R.
     An improved chain of spheres for exchange algorithm
     J. Chem. Phys., 2021 155 104109
     doi.org/doi: 10.1063/5.0058766.
  6. Neese,F.
     The SHARK Integral Generation and Digestion System
     J. Comp. Chem., 2022  1-16
     doi.org/10.1002/jcc.26942
  7. Lehtola,S.; Steigemann,C.; Oliveira,M.; Marques,M.
     Recent developments in Libxc - A comprehensive library of functionals for density functional theory
     Software X, 2018 7 
     doi.org/10.1016/j.softx.2017.11.002
  8. Grimme,S.; Antony,J.; Ehrlich,S.; Krieg,H.
     A consistent and accurate ab initio parametrization of density functional dispersion correction (DFT-D) for the 94 elements H-Pu
     J. Chem. Phys., 2010 132 154104-XXXX
     doi.org/10.1063/1.3382344
  9. Grimme,S.; Ehrlich,S.; Goerigk,L.
     Effect of the damping function in dispersion corrected density functional theory
     J. Comput. Chem., 2011 32(7)1456-1465
     doi.org/10.1002/jcc.21759

List of suggested additional citations. These are papers that are important in the 'surrounding' of 
of this run, or papers that preceded the highly important papers. If you like your results we are grateful for a citation.

  1. Izsak,R.; Neese,F.
     An overlap fitted chain of spheres exchange method
     J. Chem. Phys., 2011 135 144105
     doi.org/10.1063/1.3646921
  2. Izsak,R.; Hansen,A.; Neese,F.
     The resolution of identity and chain of spheres approximations for the LPNO-CCSD singles Fock term
     Molec. Phys., 2012 110 2413-2417
     doi.org/10.1080/00268976.2012.687466
  3. Neese,F.
     The ORCA program system
     WIRES Comput. Molec. Sci., 2012 2(1)73-78
     doi.org/10.1002/wcms.81
  4. Izsak,R.; Neese,F.; Klopper,W.
     Robust fitting techniques in the chain of spheres approximation to the Fock exchange: The role of the complementary space
     J. Chem. Phys., 2013 139 
     doi.org/10.1063/1.4819264
  5. Neese,F.
     Software update: the ORCA program system, version 4.0
     WIRES Comput. Molec. Sci., 2018 8(1)1-6
     doi.org/10.1002/wcms.1327
  6. Neese,F.; Wennmohs,F.; Becker,U.; Riplinger,C.
     The ORCA quantum chemistry program package
     J. Chem. Phys., 2020 152 Art. No. L224108
     doi.org/10.1063/5.0004608

List of optional additional citations

  1. Neese,F.
     Approximate second-order SCF convergence for spin unrestricted wavefunctions
     Chem. Phys. Lett., 2000 325(1-3)93-98
     doi.org/10.1016/s0009-2614(00)00662-x

Timings for individual modules:

Sum of individual times          ...       15.730 sec (=   0.262 min)
Startup calculation              ...        0.999 sec (=   0.017 min)   6.3 %
SCF iterations                   ...        6.105 sec (=   0.102 min)  38.8 %
Property integrals               ...        0.697 sec (=   0.012 min)   4.4 %
Property calculations            ...        0.702 sec (=   0.012 min)   4.5 %
CIS module                       ...        7.228 sec (=   0.120 min)  46.0 %
                             ****ORCA TERMINATED NORMALLY****
TOTAL RUN TIME: 0 days 0 hours 0 minutes 16 seconds 459 msec
