30
Properties=species:S:1:pos:R:3:momenta:R:3:forces:R:3 Coordinates=T from=T ORCA-job=T orca=T E=T -908.730803908782=T energy=-24728.51871873463 free_energy=-24728.51871873463 stress="2.4141296437952057e-07 -2.72552188397347e-07 3.6929594391124864e-07 -2.72552188397347e-07 -1.0203007451768067e-06 9.856947597258974e-07 3.6929594391124864e-07 9.856947597258974e-07 -2.0819805312667946e-06" pbc="F F F"
O        3.34431543       0.88716422      -0.64990465       0.48853139      -0.36116237      -0.48223391       1.99045386       1.36250727      -1.48145450
O       -1.59011673       0.99421521      -2.48105246      -0.88258303      -1.46552789       0.23723804       0.24966456       0.29011805      -0.35256584
O        0.32474760      -2.58480468      -1.07008956      -0.37241741      -0.25307281      -0.17238155       0.59655089      -0.15461172      -1.32952401
O       -3.28938155      -1.48221072       0.93111503      -0.16896470       0.54305746      -0.00174645       0.67831059       1.03079097      -0.01452824
N        0.35423910      -1.34499258       0.68163911      -0.81847190      -0.28420606       0.11169190       1.78686414       2.90212241       0.52787600
N       -1.84222326       0.19472739       1.46858300      -0.81070088       1.02163204      -0.68082701       0.05088510      -0.20577649       0.51027832
N        1.84840627      -0.77227951      -1.04037951       0.75708127       0.93128829      -0.44439201      -1.16881515      -0.29395136       0.89301348
N       -2.47789564      -0.23142401      -0.79099661       0.00508321      -0.55243035      -0.90556314      -0.20871732       0.20043096       0.77876081
C        1.97143503       0.35534331       1.07710140       0.69524298       0.19998132       0.62356929      -0.95931542      -0.09873720       0.45724314
C       -0.70791774       1.35247534      -0.30381675       0.41151289      -0.32252925       0.18610199       0.37145648      -0.39324743      -1.52392744
C        0.63077578      -0.15453987       1.41642253       0.00184146       0.81053343      -0.26095725      -1.39323631       1.08235538      -0.19395707
C       -0.64245910       0.89725692       1.05126576       0.44756431       0.39797222       1.30830846       0.10623920      -0.12125238       1.78060076
C        2.73978708       1.05829215       2.09723581       0.97713360      -0.50452319       0.56353453      -0.26342757       1.49305628       1.12334425
C        0.31118059       2.30536974      -0.78158494       0.69486707      -0.11515758      -0.36300656       1.82293304      -1.36392166       1.57420132
C        2.44924303       0.22123607      -0.28713407      -0.39459067      -0.26661791      -0.30491641      -1.19548813      -1.36765160       1.69703855
C       -1.58165269       0.72959419      -1.30222593      -0.60298132       0.37315112       0.89495801      -0.77201742      -0.35008072       0.64380604
C        0.81923844      -1.61465183      -0.54757235      -0.40973399      -0.34133571      -0.55357326       0.00300547      -0.57617491      -0.28594479
C       -2.55896163      -0.54183936       0.59131104      -0.05359255       0.29247847       0.15726501      -1.38262457      -1.55868734      -1.30341939
H        0.39036060      -0.23721970       2.50141755       0.06660532       0.10807000      -0.20336868       0.78862370      -0.34631334      -0.59011933
H       -0.56426783       1.83327802       1.63560359      -0.34507554       0.00163001       0.03687878       0.40232986      -0.56232802       0.24056593
H        3.73474308       1.30782554       1.76188816       0.28414227      -0.14969628      -0.07077932       0.19220421      -0.20123076       0.07097336
H        2.28819085       2.06056320       2.42981403       0.15782246       0.29735232      -0.23012955       0.15466166      -0.77872668      -0.65654278
H        2.70782635       0.54209200       3.07398233       0.08327034      -0.17807325       0.29354710       0.29988435      -0.16827859      -0.49438417
H        0.89254598       2.82993029       0.01272282      -0.07556376       0.02759539      -0.02982476      -0.40499742      -0.64537094      -0.24673454
H        1.02632561       1.79013061      -1.43333260      -0.08359846      -0.02361831       0.04670502      -0.10858765       0.24281418       0.00130862
H       -0.10749021       3.03172150      -1.32842209       0.04603267      -0.02292839       0.25454847      -1.42756186       2.09915380      -1.86893515
H       -0.17181142      -1.98211423       1.12156528      -0.13828015      -0.06443753       0.11532938      -1.67578143      -2.20798977       0.86753802
H       -1.87645140      -0.28221341       2.38449359       0.16892830      -0.02915063      -0.21021663       0.18839203       0.56620953      -0.55240580
H        2.13967447      -0.85140726      -1.97691019      -0.02585678       0.07077912      -0.03460648       0.09718993      -0.24829316      -0.76371091
H       -3.28884986      -0.58007137      -1.35679552      -0.10324842      -0.14105367       0.11884699       1.18092117       0.37306525       0.49160536
