
                                 *****************
                                 * O   R   C   A *
                                 *****************

                                            #,                                       
                                            ###                                      
                                            ####                                     
                                            #####                                    
                                            ######                                   
                                           ########,                                 
                                     ,,################,,,,,                         
                               ,,#################################,,                 
                          ,,##########################################,,             
                       ,#########################################, ''#####,          
                    ,#############################################,,   '####,        
                  ,##################################################,,,,####,       
                ,###########''''           ''''###############################       
              ,#####''   ,,,,##########,,,,          '''####'''          '####       
            ,##' ,,,,###########################,,,                        '##       
           ' ,,###''''                  '''############,,,                           
         ,,##''                                '''############,,,,        ,,,,,,###''
      ,#''                                            '''#######################'''  
     '                                                          ''''####''''         
             ,#######,   #######,   ,#######,      ##                                
            ,#'     '#,  ##    ##  ,#'     '#,    #''#        ,####,   ,####,        
            ##       ##  ##   ,#'  ##            #'  '#       #'       #'  '#        
            ##       ##  #######   ##           ,######,      #####,   #    #        
            '#,     ,#'  ##    ##  '#,     ,#' ,#      #,     #,   #   #,  ,#        
             '#######'   ##     ##  '#######'  #'      '#     '####' # '####'        



                #########################################################
                #                        -***-                          #
                #          Department of theory and spectroscopy        #
                #                                                       #
                #                      Frank Neese                      #
                #                                                       #
                #     Directorship, Architecture, Infrastructure        #
                #                    SHARK, DRIVERS                     #
                #        Core code/Algorithms in most modules           #
                #                                                       #
                #        Max Planck Institute fuer Kohlenforschung      #
                #                Kaiser Wilhelm Platz 1                 #
                #                 D-45470 Muelheim/Ruhr                 #
                #                      Germany                          #
                #                                                       #
                #                  All rights reserved                  #
                #                        -***-                          #
                #########################################################


                         Program Version 6.0.0  -   RELEASE  -


 With contributions from (in alphabetic order):
   Daniel Aravena         : Magnetic Suceptibility
   Michael Atanasov       : Ab Initio Ligand Field Theory (pilot matlab implementation)
   Alexander A. Auer      : GIAO ZORA, VPT2 properties, NMR spectrum
   Ute Becker             : All parallelization in ORCA, NUMFREQ, NUMCALC
   Giovanni Bistoni       : ED, misc. LED, open-shell LED, HFLD
   Martin Brehm           : Molecular dynamics
   Dmytro Bykov           : pre 5.0 version of the SCF Hessian
   Marcos Casanova-Páez   : Triplet and SCS-CIS(D). UHF-(DLPNO)-IP/EA/STEOM-CCSD. UHF-CVS-IP/STEOM-CCSD
   Vijay G. Chilkuri      : MRCI spin determinant printing, contributions to CSF-ICE
   Pauline Colinet        : FMM embedding
   Dipayan Datta          : RHF DLPNO-CCSD density
   Achintya Kumar Dutta   : EOM-CC, STEOM-CC
   Nicolas Foglia         : Exact transition moments, OPA infrastructure, MCD improvements
   Dmitry Ganyushin       : Spin-Orbit,Spin-Spin,Magnetic field MRCI
   Miquel Garcia          : C-PCM and meta-GGA Hessian, CCSD/C-PCM, Gaussian charge scheme
   Tiago L. C. Gouveia    : GS-ROHF, GS-ROCIS
   Yang Guo               : DLPNO-NEVPT2, F12-NEVPT2, CIM, IAO-localization
   Andreas Hansen         : Spin unrestricted coupled pair/coupled cluster methods
   Ingolf Harden          : AUTO-CI MPn and infrastructure 
   Benjamin Helmich-Paris : MC-RPA, TRAH-(SCF,CASSCF), AVAS, COSX integrals, SCF dyn. polar.
   Lee Huntington         : MR-EOM, pCC
   Robert Izsak           : Overlap fitted RIJCOSX, COSX-SCS-MP3, EOM
   Riya Kayal             : Wick's Theorem for AUTO-CI, AUTO-CI UHF-CCSDT
   Emily Kempfer          : AUTO-CI, RHF CISDT and CCSDT
   Christian Kollmar      : KDIIS, OOCD, Brueckner-CCSD(T), CCSD density, CASPT2, CASPT2-K, improved NEVPT2
   Axel Koslowski         : Symmetry handling
   Simone Kossmann        : Meta GGA functionals, TD-DFT gradient, OOMP2, (MP2 Hessian; deprecated post 5.0)
   Lucas Lang             : DCDCAS
   Marvin Lechner         : AUTO-CI (C++ implementation), FIC-MRCC
   Spencer Leger          : CASSCF response
   Dagmar Lenk            : GEPOL surface, SMD, ORCA-2-JSON
   Dimitrios Liakos       : Extrapolation schemes; Compound Job, initial MDCI parallelization
   Dimitrios Manganas     : Further ROCIS development; embedding schemes. LFT, Crystal Embedding
   Dimitrios Pantazis     : SARC Basis sets
   Anastasios Papadopoulos: AUTO-CI, single reference methods and gradients
   Taras Petrenko         : pre 6.0 DFT Hessian and TD-DFT gradient, (ASA, deprecated), ECA, 1-Electron XAS/XES, NRVS
   Peter Pinski           : DLPNO-MP2, DLPNO-MP2 Gradient
   Christoph Reimann      : Effective Core Potentials
   Marius Retegan         : Local ZFS, SOC
   Christoph Riplinger    : Optimizer, TS searches, QM/MM, DLPNO-CCSD(T), (RO)-DLPNO pert. Triples
   Michael Roemelt        : Original ROCIS implementation
   Masaaki Saitow         : Open-shell DLPNO-CCSD energy and density
   Barbara Sandhoefer     : DKH picture change effects
   Kantharuban Sivalingam : CASSCF convergence/infrastructure, NEVPT2 and variants, FIC-MRCI
   Bernardo de Souza      : ESD, SOC TD-DFT
   Georgi Stoychev        : AutoAux, RI-MP2 NMR, DLPNO-MP2 response, X2C
   Van Anh Tran           : RI-MP2 g-tensors
   Willem Van den Heuvel  : Paramagnetic NMR
   Zikuan Wang            : NOTCH, Electric field optimization 
   Frank Wennmohs         : Technical directorship and infrastructure
   Hang Xu                : AUTO-CI-Response properties 


 We gratefully acknowledge several colleagues who have allowed us to
 interface, adapt or use parts of their codes:
   Stefan Grimme, W. Hujo, H. Kruse, P. Pracht,  : VdW corrections, initial TS optimization,
                  C. Bannwarth, S. Ehlert,         DFT functionals, gCP, sTDA/sTD-DF
                  L. Wittmann, M. Mueller
   Ed Valeev, F. Pavosevic, A. Kumar             : LibInt (2-el integral package), F12 methods
   Garnet Chan, S. Sharma, J. Yang, R. Olivares  : DMRG
   Ulf Ekstrom                                   : XCFun DFT Library
   Mihaly Kallay                                 : mrcc  (arbitrary order and MRCC methods)
   Frank Weinhold                                : gennbo (NPA and NBO analysis)
   Simon Mueller                                 : openCOSMO-RS
   Christopher J. Cramer and Donald G. Truhlar   : smd solvation model
   Lars Goerigk                                  : TD-DFT with DH, B97 family of functionals
   V. Asgeirsson, H. Jonsson                     : NEB implementation
   FAccTs GmbH                                   : IRC, NEB, NEB-TS, DLPNO-Multilevel, CI-OPT
                                                   MM, QMMM, 2- and 3-layer-ONIOM, Crystal-QMMM,
                                                   LR-CPCM, SF, NACMEs, symmetry and pop. for TD-DFT,
                                                   nearIR, NL-DFT gradient (VV10), updates on ESD,
                                                   ML-optimized integration grids, MBIS, APM,
                                                   GOAT, DOCKER, SOLVATOR, interface openCOSMO-RS
   S Lehtola, MJT Oliveira, MAL Marques          : LibXC Library
   Liviu Ungur et al                             : ANISO software


 Your calculation uses the libint2 library for the computation of 2-el integrals
 For citations please refer to: http://libint.valeyev.net

 Your ORCA version has been built with support for libXC version: 6.2.2
 For citations please refer to: https://libxc.gitlab.io

 This ORCA versions uses:
   CBLAS   interface :  Fast vector & matrix operations
   LAPACKE interface :  Fast linear algebra routines
   SCALAPACK package :  Parallel linear algebra routines
   Shared memory     :  Shared parallel matrices
   BLAS/LAPACK       :  OpenBLAS 0.3.27  USE64BITINT DYNAMIC_ARCH NO_AFFINITY Zen SINGLE_THREADED
        Core in use  :  Zen
   Copyright (c) 2011-2014, The OpenBLAS Project


Your calculation utilizes the atom-pairwise dispersion correction
with the Becke-Johnson damping scheme (D3BJ)


Warning: RI is on but no J-basis has been assigned. Assigning Def2/J (nothing to worry about!)
================================================================================

----- Orbital basis set information -----
Your calculation utilizes the basis: def2-TZVPPD
   F. Weigend and R. Ahlrichs, Phys. Chem. Chem. Phys. 7, 3297 (2005).
   D. Rappoport and F. Furche, J. Chem. Phys. 133, 134105 (2010)
   D. Rappoport, J. Chem. Phys. 155, 124102 (2021).

----- AuxJ basis set information -----
Your calculation utilizes the auxiliary basis: def2/J
   F. Weigend, Phys. Chem. Chem. Phys. 8, 1057 (2006).

================================================================================
                                        WARNINGS
                       Please study these warnings very carefully!
================================================================================

Using LibXC functional ID 531 : wB97M-V exchange-correlation functional
[ 1]  N. Mardirossian and M. Head-Gordon.,  J. Chem. Phys. 144, 214110 (2016)
Using LibXC functional ID 531 : wB97M-V exchange-correlation functional
[ 1]  N. Mardirossian and M. Head-Gordon.,  J. Chem. Phys. 144, 214110 (2016)

WARNING: B97M-V or wB97M-V functional requested.
  ===> : libXC variant has now been activated.
         Any manually given DFX/HFX/RangeSep scaling parameters are IGNORED!

Your calculation utilizes LibXC
 by S Lehtola, C Steigemann, MJT Oliveira & MAL Marques
Please cite in your paper:
 S Lehtola, C Steigemann, MJT Oliveira & MAL Marques, SoftwareX, 7, (2018), 1.
   


WARNING: your system is open-shell and RHF/RKS was chosen
  ===> : WILL SWITCH to UHF/UKS

INFO   : Checking CIS options ...

WARNING: CIS/ROCIS methods need fully converged wavefunctions
  ===> : Setting SCFConvForced true
         You can overwrite this default with %scf ConvForced false 


================================================================================
                                       INPUT FILE
================================================================================
NAME = orca.inp
|  1> ! Engrad def2-TZVPPD wB97M-D3BJ 
|  2> %pal nprocs 8 end%pal nprocs 64 end 
|  3> %tddft 
|  4> Iroot 1 Nroots 3 
|  5> sf true 
|  6> end 
|  7> *xyz 0 3 
|  8> O   2.698125064571979 1.04898724930618 -0.546840117025879
|  9> O   -0.5881088179115586 0.9575782116434715 -2.3409866568323046
| 10> O   0.5150852874446257 -2.8265181414569183 -1.2779626729895368
| 11> O   -2.732596948573855 -1.5414290977250114 0.690150208134162
| 12> N   0.5121896842953252 -1.9569687425071371 0.7697736572960263
| 13> N   -2.002034460356423 0.41965002879645225 1.3394434653460479
| 14> N   1.6321308319504537 -0.9004014892687525 -0.8807492656235023
| 15> N   -1.6190090755470075 -0.29819794423761437 -0.7976145309085055
| 16> C   1.4846685174803813 0.1675883829240604 1.191034366527092
| 17> C   -0.7602999157729173 1.778254623862286 -0.14957783833185834
| 18> C   0.7144252894078525 -0.8828765007547819 1.5901590372617194
| 19> C   -1.1609752916835427 1.44467175055909 1.1072511811976902
| 20> C   1.9207943225651851 1.1623729454193856 2.1228113947091156
| 21> C   -0.36422816360381255 3.1103243550540958 -0.46275076621555084
| 22> C   2.0062233476297493 0.16690002243081525 -0.12987325945157782
| 23> C   -0.958091038861861 0.8277089252390433 -1.2073402388663934
| 24> C   0.860776014996826 -1.9577013391739666 -0.5306999991930168
| 25> C   -2.1493686597613784 -0.5349576870888146 0.4227386997119413
| 26> H   0.580592957623378 -1.1027686348001984 2.63378337386951
| 27> H   -1.1764345402608591 2.19076096669344 1.876853867265524
| 28> H   1.7952019007870788 2.1552792112567025 1.698583716324026
| 29> H   1.3999546846664799 1.1744738051675068 3.0802423107930985
| 30> H   2.968115814115836 1.1412262564910138 2.415098723526153
| 31> H   -1.146837575570334 3.5294598868656117 -1.0954833851156545
| 32> H   -0.16410734319891654 3.8131744452155463 0.3360618660477676
| 33> H   0.5362376759207722 3.1279610850225317 -1.0736652069142512
| 34> H   -0.1314454672613553 -2.679672101394137 1.025297436771296
| 35> H   -2.369682241795312 0.2607718730105339 2.253017629575042
| 36> H   1.8905027416991818 -0.8733184676829786 -1.8527992870584336
| 37> H   -1.739204594995991 -1.0073338788675215 -1.5013577098297466
| 38> *
| 39> 
| 40>                          ****END OF INPUT****
================================================================================

                     *******************************
                     * Energy+Gradient Calculation *
                     *******************************

---------------------------------
CARTESIAN COORDINATES (ANGSTROEM)
---------------------------------
  O      2.698125    1.048987   -0.546840
  O     -0.588109    0.957578   -2.340987
  O      0.515085   -2.826518   -1.277963
  O     -2.732597   -1.541429    0.690150
  N      0.512190   -1.956969    0.769774
  N     -2.002034    0.419650    1.339443
  N      1.632131   -0.900401   -0.880749
  N     -1.619009   -0.298198   -0.797615
  C      1.484669    0.167588    1.191034
  C     -0.760300    1.778255   -0.149578
  C      0.714425   -0.882877    1.590159
  C     -1.160975    1.444672    1.107251
  C      1.920794    1.162373    2.122811
  C     -0.364228    3.110324   -0.462751
  C      2.006223    0.166900   -0.129873
  C     -0.958091    0.827709   -1.207340
  C      0.860776   -1.957701   -0.530700
  C     -2.149369   -0.534958    0.422739
  H      0.580593   -1.102769    2.633783
  H     -1.176435    2.190761    1.876854
  H      1.795202    2.155279    1.698584
  H      1.399955    1.174474    3.080242
  H      2.968116    1.141226    2.415099
  H     -1.146838    3.529460   -1.095483
  H     -0.164107    3.813174    0.336062
  H      0.536238    3.127961   -1.073665
  H     -0.131445   -2.679672    1.025297
  H     -2.369682    0.260772    2.253018
  H      1.890503   -0.873318   -1.852799
  H     -1.739205   -1.007334   -1.501358

----------------------------
CARTESIAN COORDINATES (A.U.)
----------------------------
  NO LB      ZA    FRAG     MASS         X           Y           Z
   0 O     8.0000    0    15.999    5.098717    1.982299   -1.033378
   1 O     8.0000    0    15.999   -1.111365    1.809561   -4.423824
   2 O     8.0000    0    15.999    0.973370   -5.341345   -2.414999
   3 O     8.0000    0    15.999   -5.163860   -2.912879    1.304195
   4 N     7.0000    0    14.007    0.967898   -3.698135    1.454661
   5 N     7.0000    0    14.007   -3.783297    0.793024    2.531181
   6 N     7.0000    0    14.007    3.084280   -1.701512   -1.664375
   7 N     7.0000    0    14.007   -3.059484   -0.563512   -1.507273
   8 C     6.0000    0    12.011    2.805617    0.316696    2.250729
   9 C     6.0000    0    12.011   -1.436759    3.360414   -0.282661
  10 C     6.0000    0    12.011    1.350068   -1.668395    3.004965
  11 C     6.0000    0    12.011   -2.193925    2.730034    2.092401
  12 C     6.0000    0    12.011    3.629775    2.196567    4.011532
  13 C     6.0000    0    12.011   -0.688291    5.877661   -0.874472
  14 C     6.0000    0    12.011    3.791213    0.315395   -0.245425
  15 C     6.0000    0    12.011   -1.810530    1.564143   -2.281542
  16 C     6.0000    0    12.011    1.626631   -3.699519   -1.002878
  17 C     6.0000    0    12.011   -4.061718   -1.010924    0.798860
  18 H     1.0000    0     1.008    1.097162   -2.083931    4.977129
  19 H     1.0000    0     1.008   -2.223139    4.139938    3.546740
  20 H     1.0000    0     1.008    3.392440    4.072887    3.209858
  21 H     1.0000    0     1.008    2.645531    2.219434    5.820814
  22 H     1.0000    0     1.008    5.608926    2.156605    4.563875
  23 H     1.0000    0     1.008   -2.167209    6.669713   -2.070164
  24 H     1.0000    0     1.008   -0.310118    7.205855    0.635065
  25 H     1.0000    0     1.008    1.013342    5.910990   -2.028933
  26 H     1.0000    0     1.008   -0.248396   -5.063846    1.937531
  27 H     1.0000    0     1.008   -4.478050    0.492787    4.257586
  28 H     1.0000    0     1.008    3.572532   -1.650333   -3.501283
  29 H     1.0000    0     1.008   -3.286620   -1.903585   -2.837155

--------------------------------
INTERNAL COORDINATES (ANGSTROEM)
--------------------------------
 O      0   0   0     0.000000000000     0.00000000     0.00000000
 O      1   0   0     3.745217022931     0.00000000     0.00000000
 O      2   1   0     4.082455441749    70.17020941     0.00000000
 O      3   2   1     4.009035054638    67.15738789   112.81269879
 N      3   2   1     2.224713154567    82.93639042    58.26447561
 N      4   3   2     2.191149155929    99.33845059   311.22968965
 N      1   2   3     2.246765559105    59.42382703   359.58111666
 N      4   3   2     2.235876913136    56.50304087   358.71353987
 C      1   2   3     2.295549710619    83.65409608   298.60904882
 C      8   4   3     2.338586804798   119.48554768   237.04865224
 C      9   1   2     1.362369848838   144.75663691    60.28462019
 C      6   4   3     1.346091866149   147.00660876    26.02436199
 C      9   1   2     1.431087165021    93.72259309   232.52190884
 C     10   8   4     1.424556030623   150.62590264   208.34939940
 C      1   2   3     1.196105021325    68.98752170   327.38343401
 C      2   1   3     1.199544528701    79.66202117    77.37868101
 C      3   2   1     1.196973775274    64.39301065    32.32986025
 C      4   3   2     1.193586549914    76.37726827   333.18441234
 H     11   9   1     1.074902507024   120.83487463   158.42818770
 H     12   6   4     1.071996455778   113.39883321   185.14618256
 H     13   9   1     1.087016758038   110.22028390    49.54803271
 H     13   9   1     1.089997393706   115.72207894   169.92173202
 H     13   9   1     1.087548330744   117.06174523   291.63718512
 H     14  10   8     1.090184687448   106.70861775    44.75807044
 H     14  10   8     1.082657939269   119.75098022   167.84951508
 H     14  10   8     1.088285916590   111.62988902   290.34987644
 H      5   3   2     1.000928946101    87.34065875   124.13355764
 H      6   4   3     0.997509354908    90.34118363   225.12811870
 H      7   1   2     1.006166376887    89.90769521    73.97645286
 H      8   4   3     1.006267955645    90.80312601    56.12809044

---------------------------
INTERNAL COORDINATES (A.U.)
---------------------------
 O      0   0   0     0.000000000000     0.00000000     0.00000000
 O      1   0   0     7.077434485439     0.00000000     0.00000000
 O      2   1   0     7.714722738842    70.17020941     0.00000000
 O      3   2   1     7.575978314555    67.15738789   112.81269879
 N      3   2   1     4.204098588663    82.93639042    58.26447561
 N      4   3   2     4.140671823279    99.33845059   311.22968965
 N      1   2   3     4.245771593836    59.42382703   359.58111666
 N      4   3   2     4.225195034984    56.50304087   358.71353987
 C      1   2   3     4.337960279872    83.65409608   298.60904882
 C      8   4   3     4.419288601470   119.48554768   237.04865224
 C      9   1   2     2.574505907416   144.75663691    60.28462019
 C      6   4   3     2.543744978120   147.00660876    26.02436199
 C      9   1   2     2.704362815659    93.72259309   232.52190884
 C     10   8   4     2.692020760302   150.62590264   208.34939940
 C      1   2   3     2.260310917713    68.98752170   327.38343401
 C      2   1   3     2.266810644689    79.66202117    77.37868101
 C      3   2   1     2.261952624754    64.39301065    32.32986025
 C      4   3   2     2.255551696470    76.37726827   333.18441234
 H     11   9   1     2.031271358940   120.83487463   158.42818770
 H     12   6   4     2.025779717955   113.39883321   185.14618256
 H     13   9   1     2.054163975674   110.22028390    49.54803271
 H     13   9   1     2.059796560793   115.72207894   169.92173202
 H     13   9   1     2.055168502509   117.06174523   291.63718512
 H     14  10   8     2.060150494671   106.70861775    44.75807044
 H     14  10   8     2.045927001935   119.75098022   167.84951508
 H     14  10   8     2.056562337759   111.62988902   290.34987644
 H      5   3   2     1.891481587646    87.34065875   124.13355764
 H      6   4   3     1.885019496801    90.34118363   225.12811870
 H      7   1   2     1.901378897475    89.90769521    73.97645286
 H      8   4   3     1.901570853509    90.80312601    56.12809044

---------------------
BASIS SET INFORMATION
---------------------
There are 4 groups of distinct atoms

 Group   1 Type O   : 12s7p3d1f contracted to 6s4p3d1f pattern {621111/4111/111/1}
 Group   2 Type N   : 12s6p3d1f contracted to 6s3p3d1f pattern {621111/411/111/1}
 Group   3 Type C   : 12s6p3d1f contracted to 6s3p3d1f pattern {621111/411/111/1}
 Group   4 Type H   : 5s3p1d contracted to 3s3p1d pattern {311/111/1}

Atom   0O    basis set group =>   1
Atom   1O    basis set group =>   1
Atom   2O    basis set group =>   1
Atom   3O    basis set group =>   1
Atom   4N    basis set group =>   2
Atom   5N    basis set group =>   2
Atom   6N    basis set group =>   2
Atom   7N    basis set group =>   2
Atom   8C    basis set group =>   3
Atom   9C    basis set group =>   3
Atom  10C    basis set group =>   3
Atom  11C    basis set group =>   3
Atom  12C    basis set group =>   3
Atom  13C    basis set group =>   3
Atom  14C    basis set group =>   3
Atom  15C    basis set group =>   3
Atom  16C    basis set group =>   3
Atom  17C    basis set group =>   3
Atom  18H    basis set group =>   4
Atom  19H    basis set group =>   4
Atom  20H    basis set group =>   4
Atom  21H    basis set group =>   4
Atom  22H    basis set group =>   4
Atom  23H    basis set group =>   4
Atom  24H    basis set group =>   4
Atom  25H    basis set group =>   4
Atom  26H    basis set group =>   4
Atom  27H    basis set group =>   4
Atom  28H    basis set group =>   4
Atom  29H    basis set group =>   4
---------------------------------
AUXILIARY/J BASIS SET INFORMATION
---------------------------------
There are 4 groups of distinct atoms

 Group   1 Type O   : 12s5p4d2f1g contracted to 6s4p3d1f1g pattern {711111/2111/211/2/1}
 Group   2 Type N   : 12s5p4d2f1g contracted to 6s4p3d1f1g pattern {711111/2111/211/2/1}
 Group   3 Type C   : 12s5p4d2f1g contracted to 6s4p3d1f1g pattern {711111/2111/211/2/1}
 Group   4 Type H   : 5s2p1d contracted to 3s1p1d pattern {311/2/1}

Atom   0O    basis set group =>   1
Atom   1O    basis set group =>   1
Atom   2O    basis set group =>   1
Atom   3O    basis set group =>   1
Atom   4N    basis set group =>   2
Atom   5N    basis set group =>   2
Atom   6N    basis set group =>   2
Atom   7N    basis set group =>   2
Atom   8C    basis set group =>   3
Atom   9C    basis set group =>   3
Atom  10C    basis set group =>   3
Atom  11C    basis set group =>   3
Atom  12C    basis set group =>   3
Atom  13C    basis set group =>   3
Atom  14C    basis set group =>   3
Atom  15C    basis set group =>   3
Atom  16C    basis set group =>   3
Atom  17C    basis set group =>   3
Atom  18H    basis set group =>   4
Atom  19H    basis set group =>   4
Atom  20H    basis set group =>   4
Atom  21H    basis set group =>   4
Atom  22H    basis set group =>   4
Atom  23H    basis set group =>   4
Atom  24H    basis set group =>   4
Atom  25H    basis set group =>   4
Atom  26H    basis set group =>   4
Atom  27H    basis set group =>   4
Atom  28H    basis set group =>   4
Atom  29H    basis set group =>   4
[1741443701.537417] [ohm:1888119:0]        ib_iface.c:1059 UCX  ERROR ibv_create_cq(cqe=256) failed: Connection timed out
[1741443701.545862] [ohm:1888124:0]        ib_iface.c:1059 UCX  ERROR ibv_create_cq(cqe=256) failed: Connection timed out
[1741443701.547791] [ohm:1888117:0]        ib_iface.c:1059 UCX  ERROR ibv_create_cq(cqe=256) failed: Connection timed out
[1741443701.550241] [ohm:1888121:0]        ib_iface.c:1059 UCX  ERROR ibv_create_cq(cqe=256) failed: Connection timed out
[1741443701.563861] [ohm:1888120:0]        ib_iface.c:1059 UCX  ERROR ibv_create_cq(cqe=256) failed: Connection timed out
[1741443701.566477] [ohm:1888118:0]        ib_iface.c:1059 UCX  ERROR ibv_create_cq(cqe=256) failed: Connection timed out
[1741443701.578370] [ohm:1888136:0]        ib_iface.c:1059 UCX  ERROR ibv_create_cq(cqe=256) failed: Connection timed out
[1741443701.580812] [ohm:1888138:0]        ib_iface.c:1059 UCX  ERROR ibv_create_cq(cqe=256) failed: Connection timed out
[1741443701.584212] [ohm:1888161:0]        ib_iface.c:1059 UCX  ERROR ibv_create_cq(cqe=256) failed: Connection timed out
[1741443701.613323] [ohm:1888211:0]        ib_iface.c:1059 UCX  ERROR ibv_create_cq(cqe=256) failed: Connection timed out
[1741443701.613883] [ohm:1888127:0]        ib_iface.c:1059 UCX  ERROR ibv_create_cq(cqe=256) failed: Connection timed out
[1741443701.623548] [ohm:1888125:0]        ib_iface.c:1059 UCX  ERROR ibv_create_cq(cqe=256) failed: Connection timed out
[1741443701.646067] [ohm:1888175:0]        ib_iface.c:1059 UCX  ERROR ibv_create_cq(cqe=256) failed: Connection timed out
[1741443701.662985] [ohm:1888146:0]        ib_iface.c:1059 UCX  ERROR ibv_create_cq(cqe=256) failed: Connection timed out
[1741443701.662955] [ohm:1888162:0]        ib_iface.c:1059 UCX  ERROR ibv_create_cq(cqe=256) failed: Connection timed out
[1741443701.663858] [ohm:1888156:0]        ib_iface.c:1059 UCX  ERROR ibv_create_cq(cqe=256) failed: Connection timed out
[1741443701.664236] [ohm:1888230:0]        ib_iface.c:1059 UCX  ERROR ibv_create_cq(cqe=256) failed: Connection timed out
[1741443701.667116] [ohm:1888255:0]        ib_iface.c:1059 UCX  ERROR ibv_create_cq(cqe=256) failed: Connection timed out
[1741443701.671880] [ohm:1888152:0]        ib_iface.c:1059 UCX  ERROR ibv_create_cq(cqe=256) failed: Connection timed out
[1741443701.673092] [ohm:1888144:0]        ib_iface.c:1059 UCX  ERROR ibv_create_cq(cqe=256) failed: Connection timed out
[1741443701.680743] [ohm:1888243:0]        ib_iface.c:1059 UCX  ERROR ibv_create_cq(cqe=256) failed: Connection timed out
[1741443701.682136] [ohm:1888180:0]        ib_iface.c:1059 UCX  ERROR ibv_create_cq(cqe=256) failed: Connection timed out
[1741443701.684454] [ohm:1888252:0]        ib_iface.c:1059 UCX  ERROR ibv_create_cq(cqe=256) failed: Connection timed out
[1741443701.708148] [ohm:1888264:0]        ib_iface.c:1059 UCX  ERROR ibv_create_cq(cqe=256) failed: Connection timed out
[1741443701.716550] [ohm:1888150:0]        ib_iface.c:1059 UCX  ERROR ibv_create_cq(cqe=256) failed: Connection timed out
[1741443701.725199] [ohm:1888227:0]        ib_iface.c:1059 UCX  ERROR ibv_create_cq(cqe=256) failed: Connection timed out
[1741443701.734688] [ohm:1888170:0]        ib_iface.c:1059 UCX  ERROR ibv_create_cq(cqe=256) failed: Connection timed out
[1741443701.743552] [ohm:1888145:0]        ib_iface.c:1059 UCX  ERROR ibv_create_cq(cqe=256) failed: Connection timed out
[1741443701.745346] [ohm:1888139:0]        ib_iface.c:1059 UCX  ERROR ibv_create_cq(cqe=256) failed: Connection timed out
[1741443701.749924] [ohm:1888200:0]        ib_iface.c:1059 UCX  ERROR ibv_create_cq(cqe=256) failed: Connection timed out
[1741443701.752164] [ohm:1888141:0]        ib_iface.c:1059 UCX  ERROR ibv_create_cq(cqe=256) failed: Connection timed out
[1741443701.757113] [ohm:1888214:0]        ib_iface.c:1059 UCX  ERROR ibv_create_cq(cqe=256) failed: Connection timed out
[1741443701.758052] [ohm:1888193:0]        ib_iface.c:1059 UCX  ERROR ibv_create_cq(cqe=256) failed: Connection timed out
[1741443701.760229] [ohm:1888143:0]        ib_iface.c:1059 UCX  ERROR ibv_create_cq(cqe=256) failed: Connection timed out
[1741443701.764756] [ohm:1888168:0]        ib_iface.c:1059 UCX  ERROR ibv_create_cq(cqe=256) failed: Connection timed out
[1741443701.772424] [ohm:1888177:0]        ib_iface.c:1059 UCX  ERROR ibv_create_cq(cqe=256) failed: Connection timed out
[1741443701.775035] [ohm:1888173:0]        ib_iface.c:1059 UCX  ERROR ibv_create_cq(cqe=256) failed: Connection timed out
[1741443701.777288] [ohm:1888172:0]        ib_iface.c:1059 UCX  ERROR ibv_create_cq(cqe=256) failed: Connection timed out
[1741443701.777881] [ohm:1888167:0]        ib_iface.c:1059 UCX  ERROR ibv_create_cq(cqe=256) failed: Connection timed out
[1741443701.779502] [ohm:1888207:0]        ib_iface.c:1059 UCX  ERROR ibv_create_cq(cqe=256) failed: Connection timed out
[1741443701.779824] [ohm:1888194:0]        ib_iface.c:1059 UCX  ERROR ibv_create_cq(cqe=256) failed: Connection timed out
[1741443701.784124] [ohm:1888238:0]        ib_iface.c:1059 UCX  ERROR ibv_create_cq(cqe=256) failed: Connection timed out
[1741443701.792544] [ohm:1888188:0]        ib_iface.c:1059 UCX  ERROR ibv_create_cq(cqe=256) failed: Connection timed out
[1741443701.804377] [ohm:1888247:0]        ib_iface.c:1059 UCX  ERROR ibv_create_cq(cqe=256) failed: Connection timed out
[1741443701.805102] [ohm:1888219:0]        ib_iface.c:1059 UCX  ERROR ibv_create_cq(cqe=256) failed: Connection timed out
[1741443701.807264] [ohm:1888140:0]        ib_iface.c:1059 UCX  ERROR ibv_create_cq(cqe=256) failed: Connection timed out
[1741443701.809106] [ohm:1888171:0]        ib_iface.c:1059 UCX  ERROR ibv_create_cq(cqe=256) failed: Connection timed out
[1741443701.809907] [ohm:1888222:0]        ib_iface.c:1059 UCX  ERROR ibv_create_cq(cqe=256) failed: Connection timed out
[1741443701.811689] [ohm:1888196:0]        ib_iface.c:1059 UCX  ERROR ibv_create_cq(cqe=256) failed: Connection timed out
[1741443701.815686] [ohm:1888248:0]        ib_iface.c:1059 UCX  ERROR ibv_create_cq(cqe=256) failed: Connection timed out
[1741443701.817332] [ohm:1888126:0]        ib_iface.c:1059 UCX  ERROR ibv_create_cq(cqe=256) failed: Connection timed out
[1741443701.819638] [ohm:1888203:0]        ib_iface.c:1059 UCX  ERROR ibv_create_cq(cqe=256) failed: Connection timed out
[1741443701.822660] [ohm:1888225:0]        ib_iface.c:1059 UCX  ERROR ibv_create_cq(cqe=256) failed: Connection timed out
[1741443701.823800] [ohm:1888122:0]        ib_iface.c:1059 UCX  ERROR ibv_create_cq(cqe=256) failed: Connection timed out
[1741443701.825949] [ohm:1888142:0]        ib_iface.c:1059 UCX  ERROR ibv_create_cq(cqe=256) failed: Connection timed out
[1741443701.826790] [ohm:1888184:0]        ib_iface.c:1059 UCX  ERROR ibv_create_cq(cqe=256) failed: Connection timed out
[1741443701.828202] [ohm:1888166:0]        ib_iface.c:1059 UCX  ERROR ibv_create_cq(cqe=256) failed: Connection timed out
[1741443701.828280] [ohm:1888258:0]        ib_iface.c:1059 UCX  ERROR ibv_create_cq(cqe=256) failed: Connection timed out
[1741443701.830101] [ohm:1888234:0]        ib_iface.c:1059 UCX  ERROR ibv_create_cq(cqe=256) failed: Connection timed out
[1741443701.831699] [ohm:1888190:0]        ib_iface.c:1059 UCX  ERROR ibv_create_cq(cqe=256) failed: Connection timed out
[1741443701.833262] [ohm:1888137:0]        ib_iface.c:1059 UCX  ERROR ibv_create_cq(cqe=256) failed: Connection timed out
[1741443701.834029] [ohm:1888240:0]        ib_iface.c:1059 UCX  ERROR ibv_create_cq(cqe=256) failed: Connection timed out
[1741443701.834165] [ohm:1888123:0]        ib_iface.c:1059 UCX  ERROR ibv_create_cq(cqe=256) failed: Connection timed out
[1741443701.834933] [ohm:1888169:0]        ib_iface.c:1059 UCX  ERROR ibv_create_cq(cqe=256) failed: Connection timed out


           ************************************************************
           *        Program running with 64 parallel MPI-processes    *
           *              working on a common directory               *
           ************************************************************
------------------------------------------------------------------------------
                             ORCA STARTUP CALCULATIONS
                           -- RI-GTO INTEGRALS CHOSEN --
------------------------------------------------------------------------------
------------------------------------------------------------------------------
                   ___                                                        
                  /   \      - P O W E R E D   B Y -                         
                 /     \                                                     
                 |  |  |   _    _      __       _____    __    __             
                 |  |  |  | |  | |    /  \     |  _  \  |  |  /  |          
                  \  \/   | |  | |   /    \    | | | |  |  | /  /          
                 / \  \   | |__| |  /  /\  \   | |_| |  |  |/  /          
                |  |  |   |  __  | /  /__\  \  |    /   |      \           
                |  |  |   | |  | | |   __   |  |    \   |  |\   \          
                \     /   | |  | | |  |  |  |  | |\  \  |  | \   \       
                 \___/    |_|  |_| |__|  |__|  |_| \__\ |__|  \__/        
                                                                              
                      - O R C A' S   B I G   F R I E N D -                    
                                      &                                       
                       - I N T E G R A L  F E E D E R -                       
                                                                              
 v1 FN, 2020, v2 2021, v3 2022-2024                                           
------------------------------------------------------------------------------


----------------------
SHARK INTEGRAL PACKAGE
----------------------

Number of atoms                             ...     30
Number of basis functions                   ...    882
Number of shells                            ...    322
Maximum angular momentum                    ...      3
Integral batch strategy                     ... SHARK/LIBINT Hybrid
RI-J (if used) integral strategy            ... SPLIT-RIJ (Revised 2003 algorithm where possible)
Printlevel                                  ...      1
Contraction scheme used                     ... SEGMENTED contraction
Prescreening option                         ... SCHWARTZ
   Thresh                                   ... 2.500e-11
   Tcut                                     ... 2.500e-12
   Tpresel                                  ... 2.500e-12 
Coulomb Range Separation                    ... NOT USED
Exchange Range Separation                   ... Long Range
   Mu parameter                             ... 3.000e-01
   Scaling (regular/separated)              ... 1.500e-01 8.500e-01
Multipole approximations                    ... NOT USED
Finite Nucleus Model                        ... NOT USED
CABS basis                                  ... NOT available
Auxiliary Coulomb fitting basis             ... AVAILABLE
   # of basis functions in Aux-J            ...   1014
   # of shells in Aux-J                     ...    330
   Maximum angular momentum in Aux-J        ...      4
Auxiliary J/K fitting basis                 ... NOT available
Auxiliary Correlation fitting basis         ... NOT available
Auxiliary 'external' fitting basis          ... NOT available

Checking pre-screening integrals            ... done (  0.0 sec) Dimension = 322
Check shell pair data                       ... done (  0.0 sec)
Shell pair information
Shell pair cut-off parameter TPreSel        ...   2.5e-12
Total number of shell pairs                 ...     52003
Shell pairs after pre-screening             ...     45456
Total number of primitive shell pairs       ...    129718
Primitive shell pairs kept                  ...     84845
          la=0 lb=0:   8775 shell pairs
          la=1 lb=0:  12001 shell pairs
          la=1 lb=1:   4145 shell pairs
          la=2 lb=0:   8173 shell pairs
          la=2 lb=1:   5645 shell pairs
          la=2 lb=2:   1949 shell pairs
          la=3 lb=0:   2083 shell pairs
          la=3 lb=1:   1503 shell pairs
          la=3 lb=2:   1036 shell pairs
          la=3 lb=3:    146 shell pairs

Calculating one electron integrals          ... done (  0.2 sec)
Calculating RI/J V-Matrix + Cholesky decomp.... done (  0.1 sec)
Calculating Nuclear repulsion               ... done (  0.0 sec) ENN=   1474.635057025119 Eh

Diagonalization of the overlap matrix:
Smallest eigenvalue                        ... 4.103e-07
Time for diagonalization                   ...    0.125 sec
Threshold for overlap eigenvalues          ... 1.000e-07
Number of eigenvalues below threshold      ... 0

IMPORTANT:
Smallest eigenvalue of S below the DiffSThresh (1.000e-06) while
Thresh>1e-12 and/or TCut>1e-13! In order to avoid SCF convergence issues,
Thresh will be set to at least 1e-12 and TCut to at least 1e-13.
This can be turned off by adding %SCF DiffSThresh -1 END to the input.

Time for construction of square roots      ...    0.129 sec
Total time needed                          ...    0.270 sec

-------------------
DFT GRID GENERATION
-------------------

General Integration Accuracy     IntAcc      ... 4.388
Radial Grid Type                 RadialGrid  ... OptM3 with GC (2021)
Angular Grid (max. ang.)         AngularGrid ... 4 (Lebedev-302)
Angular grid pruning method      GridPruning ... 4 (adaptive)
Weight generation scheme         WeightScheme... mBecke (2022)
Basis function cutoff            BFCut       ... 1.0000e-11
Integration weight cutoff        WCut        ... 1.0000e-14
Partially contracted basis set               ... off
Rotationally invariant grid construction     ... off
Angular grids for H and He will be reduced by one unit
Diffuse basis detected: some atoms will have their outermost
                        angular grid increased by 1.

Total number of grid points                  ...   152004
Total number of batches                      ...     2389
Average number of points per batch           ...       63
Average number of grid points per atom       ...     5067

--------------------
COSX GRID GENERATION
--------------------

GRIDX 1
-------
General Integration Accuracy     IntAcc      ... 3.816
Radial Grid Type                 RadialGrid  ... OptM3 with GC (2021)
Angular Grid (max. ang.)         AngularGrid ... 1 (Lebedev-50)
Angular grid pruning method      GridPruning ... 4 (adaptive)
Weight generation scheme         WeightScheme... mBecke (2022)
Basis function cutoff            BFCut       ... 1.0000e-11
Integration weight cutoff        WCut        ... 1.0000e-14
Partially contracted basis set               ... on
Rotationally invariant grid construction     ... off
Angular grids for H and He will be reduced by one unit
Diffuse basis detected: some atoms will have their outermost
                        angular grid increased by 1.

Total number of grid points                  ...    19038
Total number of batches                      ...      166
Average number of points per batch           ...      114
Average number of grid points per atom       ...      635
UseSFitting                                  ... on

GRIDX 2
-------
General Integration Accuracy     IntAcc      ... 4.020
Radial Grid Type                 RadialGrid  ... OptM3 with GC (2021)
Angular Grid (max. ang.)         AngularGrid ... 2 (Lebedev-110)
Angular grid pruning method      GridPruning ... 4 (adaptive)
Weight generation scheme         WeightScheme... mBecke (2022)
Basis function cutoff            BFCut       ... 1.0000e-11
Integration weight cutoff        WCut        ... 1.0000e-14
Partially contracted basis set               ... on
Rotationally invariant grid construction     ... off
Angular grids for H and He will be reduced by one unit
Diffuse basis detected: some atoms will have their outermost
                        angular grid increased by 1.

Total number of grid points                  ...    45825
Total number of batches                      ...      374
Average number of points per batch           ...      122
Average number of grid points per atom       ...     1528
UseSFitting                                  ... on

GRIDX 3
-------
General Integration Accuracy     IntAcc      ... 4.338
Radial Grid Type                 RadialGrid  ... OptM3 with GC (2021)
Angular Grid (max. ang.)         AngularGrid ... 3 (Lebedev-194)
Angular grid pruning method      GridPruning ... 4 (adaptive)
Weight generation scheme         WeightScheme... mBecke (2022)
Basis function cutoff            BFCut       ... 1.0000e-11
Integration weight cutoff        WCut        ... 1.0000e-14
Partially contracted basis set               ... on
Rotationally invariant grid construction     ... off
Angular grids for H and He will be reduced by one unit
Diffuse basis detected: some atoms will have their outermost
                        angular grid increased by 1.

Total number of grid points                  ...   100865
Total number of batches                      ...      805
Average number of points per batch           ...      125
Average number of grid points per atom       ...     3362
UseSFitting                                  ... on
Initializing property integral containers    ... done (  0.0 sec)

SHARK setup successfully completed in   4.1 seconds

Maximum memory used throughout the entire STARTUP-calculation: 80.6 MB
[1741443707.831910] [ohm:1888486:0]        ib_iface.c:1059 UCX  ERROR ibv_create_cq(cqe=256) failed: Connection timed out
[1741443707.854254] [ohm:1888488:0]        ib_iface.c:1059 UCX  ERROR ibv_create_cq(cqe=256) failed: Connection timed out
[1741443707.859504] [ohm:1888483:0]        ib_iface.c:1059 UCX  ERROR ibv_create_cq(cqe=256) failed: Connection timed out
[1741443707.902701] [ohm:1888492:0]        ib_iface.c:1059 UCX  ERROR ibv_create_cq(cqe=256) failed: Connection timed out
[1741443707.921263] [ohm:1888485:0]        ib_iface.c:1059 UCX  ERROR ibv_create_cq(cqe=256) failed: Connection timed out
[1741443707.925450] [ohm:1888484:0]        ib_iface.c:1059 UCX  ERROR ibv_create_cq(cqe=256) failed: Connection timed out
[1741443707.935881] [ohm:1888598:0]        ib_iface.c:1059 UCX  ERROR ibv_create_cq(cqe=256) failed: Connection timed out
[1741443707.938035] [ohm:1888487:0]        ib_iface.c:1059 UCX  ERROR ibv_create_cq(cqe=256) failed: Connection timed out
[1741443707.942404] [ohm:1888489:0]        ib_iface.c:1059 UCX  ERROR ibv_create_cq(cqe=256) failed: Connection timed out
[1741443707.944195] [ohm:1888505:0]        ib_iface.c:1059 UCX  ERROR ibv_create_cq(cqe=256) failed: Connection timed out
[1741443707.951331] [ohm:1888496:0]        ib_iface.c:1059 UCX  ERROR ibv_create_cq(cqe=256) failed: Connection timed out
[1741443708.009421] [ohm:1888624:0]        ib_iface.c:1059 UCX  ERROR ibv_create_cq(cqe=256) failed: Connection timed out
[1741443708.012861] [ohm:1888567:0]        ib_iface.c:1059 UCX  ERROR ibv_create_cq(cqe=256) failed: Connection timed out
[1741443708.014641] [ohm:1888544:0]        ib_iface.c:1059 UCX  ERROR ibv_create_cq(cqe=256) failed: Connection timed out
[1741443708.020632] [ohm:1888499:0]        ib_iface.c:1059 UCX  ERROR ibv_create_cq(cqe=256) failed: Connection timed out
[1741443708.032806] [ohm:1888506:0]        ib_iface.c:1059 UCX  ERROR ibv_create_cq(cqe=256) failed: Connection timed out
[1741443708.032810] [ohm:1888542:0]        ib_iface.c:1059 UCX  ERROR ibv_create_cq(cqe=256) failed: Connection timed out
[1741443708.042478] [ohm:1888621:0]        ib_iface.c:1059 UCX  ERROR ibv_create_cq(cqe=256) failed: Connection timed out
[1741443708.055229] [ohm:1888599:0]        ib_iface.c:1059 UCX  ERROR ibv_create_cq(cqe=256) failed: Connection timed out
[1741443708.059955] [ohm:1888586:0]        ib_iface.c:1059 UCX  ERROR ibv_create_cq(cqe=256) failed: Connection timed out
[1741443708.063631] [ohm:1888518:0]        ib_iface.c:1059 UCX  ERROR ibv_create_cq(cqe=256) failed: Connection timed out
[1741443708.080322] [ohm:1888524:0]        ib_iface.c:1059 UCX  ERROR ibv_create_cq(cqe=256) failed: Connection timed out
[1741443708.082309] [ohm:1888511:0]        ib_iface.c:1059 UCX  ERROR ibv_create_cq(cqe=256) failed: Connection timed out
[1741443708.086629] [ohm:1888514:0]        ib_iface.c:1059 UCX  ERROR ibv_create_cq(cqe=256) failed: Connection timed out
[1741443708.086805] [ohm:1888507:0]        ib_iface.c:1059 UCX  ERROR ibv_create_cq(cqe=256) failed: Connection timed out
[1741443708.095663] [ohm:1888564:0]        ib_iface.c:1059 UCX  ERROR ibv_create_cq(cqe=256) failed: Connection timed out
[1741443708.098808] [ohm:1888529:0]        ib_iface.c:1059 UCX  ERROR ibv_create_cq(cqe=256) failed: Connection timed out
[1741443708.100601] [ohm:1888611:0]        ib_iface.c:1059 UCX  ERROR ibv_create_cq(cqe=256) failed: Connection timed out
[1741443708.100977] [ohm:1888616:0]        ib_iface.c:1059 UCX  ERROR ibv_create_cq(cqe=256) failed: Connection timed out
[1741443708.104576] [ohm:1888618:0]        ib_iface.c:1059 UCX  ERROR ibv_create_cq(cqe=256) failed: Connection timed out
[1741443708.105353] [ohm:1888493:0]        ib_iface.c:1059 UCX  ERROR ibv_create_cq(cqe=256) failed: Connection timed out
[1741443708.108277] [ohm:1888502:0]        ib_iface.c:1059 UCX  ERROR ibv_create_cq(cqe=256) failed: Connection timed out
[1741443708.115635] [ohm:1888572:0]        ib_iface.c:1059 UCX  ERROR ibv_create_cq(cqe=256) failed: Connection timed out
[1741443708.117351] [ohm:1888550:0]        ib_iface.c:1059 UCX  ERROR ibv_create_cq(cqe=256) failed: Connection timed out
[1741443708.117431] [ohm:1888594:0]        ib_iface.c:1059 UCX  ERROR ibv_create_cq(cqe=256) failed: Connection timed out
[1741443708.119073] [ohm:1888574:0]        ib_iface.c:1059 UCX  ERROR ibv_create_cq(cqe=256) failed: Connection timed out
[1741443708.134694] [ohm:1888612:0]        ib_iface.c:1059 UCX  ERROR ibv_create_cq(cqe=256) failed: Connection timed out
[1741443708.141092] [ohm:1888538:0]        ib_iface.c:1059 UCX  ERROR ibv_create_cq(cqe=256) failed: Connection timed out
[1741443708.143963] [ohm:1888491:0]        ib_iface.c:1059 UCX  ERROR ibv_create_cq(cqe=256) failed: Connection timed out
[1741443708.145266] [ohm:1888584:0]        ib_iface.c:1059 UCX  ERROR ibv_create_cq(cqe=256) failed: Connection timed out
[1741443708.145940] [ohm:1888520:0]        ib_iface.c:1059 UCX  ERROR ibv_create_cq(cqe=256) failed: Connection timed out
[1741443708.148426] [ohm:1888631:0]        ib_iface.c:1059 UCX  ERROR ibv_create_cq(cqe=256) failed: Connection timed out
[1741443708.156237] [ohm:1888557:0]        ib_iface.c:1059 UCX  ERROR ibv_create_cq(cqe=256) failed: Connection timed out
[1741443708.156350] [ohm:1888501:0]        ib_iface.c:1059 UCX  ERROR ibv_create_cq(cqe=256) failed: Connection timed out
[1741443708.163984] [ohm:1888503:0]        ib_iface.c:1059 UCX  ERROR ibv_create_cq(cqe=256) failed: Connection timed out
[1741443708.164926] [ohm:1888504:0]        ib_iface.c:1059 UCX  ERROR ibv_create_cq(cqe=256) failed: Connection timed out
[1741443708.166405] [ohm:1888604:0]        ib_iface.c:1059 UCX  ERROR ibv_create_cq(cqe=256) failed: Connection timed out
[1741443708.166858] [ohm:1888494:0]        ib_iface.c:1059 UCX  ERROR ibv_create_cq(cqe=256) failed: Connection timed out
[1741443708.169466] [ohm:1888527:0]        ib_iface.c:1059 UCX  ERROR ibv_create_cq(cqe=256) failed: Connection timed out
[1741443708.173143] [ohm:1888577:0]        ib_iface.c:1059 UCX  ERROR ibv_create_cq(cqe=256) failed: Connection timed out
[1741443708.174551] [ohm:1888571:0]        ib_iface.c:1059 UCX  ERROR ibv_create_cq(cqe=256) failed: Connection timed out
[1741443708.175650] [ohm:1888554:0]        ib_iface.c:1059 UCX  ERROR ibv_create_cq(cqe=256) failed: Connection timed out
[1741443708.176893] [ohm:1888535:0]        ib_iface.c:1059 UCX  ERROR ibv_create_cq(cqe=256) failed: Connection timed out
[1741443708.180352] [ohm:1888590:0]        ib_iface.c:1059 UCX  ERROR ibv_create_cq(cqe=256) failed: Connection timed out
[1741443708.180686] [ohm:1888498:0]        ib_iface.c:1059 UCX  ERROR ibv_create_cq(cqe=256) failed: Connection timed out
[1741443708.180762] [ohm:1888490:0]        ib_iface.c:1059 UCX  ERROR ibv_create_cq(cqe=256) failed: Connection timed out
[1741443708.180975] [ohm:1888608:0]        ib_iface.c:1059 UCX  ERROR ibv_create_cq(cqe=256) failed: Connection timed out
[1741443708.182793] [ohm:1888497:0]        ib_iface.c:1059 UCX  ERROR ibv_create_cq(cqe=256) failed: Connection timed out
[1741443708.182942] [ohm:1888534:0]        ib_iface.c:1059 UCX  ERROR ibv_create_cq(cqe=256) failed: Connection timed out
[1741443708.183072] [ohm:1888495:0]        ib_iface.c:1059 UCX  ERROR ibv_create_cq(cqe=256) failed: Connection timed out
[1741443708.183372] [ohm:1888606:0]        ib_iface.c:1059 UCX  ERROR ibv_create_cq(cqe=256) failed: Connection timed out
[1741443708.183481] [ohm:1888580:0]        ib_iface.c:1059 UCX  ERROR ibv_create_cq(cqe=256) failed: Connection timed out
[1741443708.184841] [ohm:1888509:0]        ib_iface.c:1059 UCX  ERROR ibv_create_cq(cqe=256) failed: Connection timed out
[1741443708.185973] [ohm:1888500:0]        ib_iface.c:1059 UCX  ERROR ibv_create_cq(cqe=256) failed: Connection timed out


           ************************************************************
           *        Program running with 64 parallel MPI-processes    *
           *              working on a common directory               *
           ************************************************************
-------------------------------------------------------------------------------
                                 ORCA GUESS
                   Start orbitals & Density for SCF / CASSCF
-------------------------------------------------------------------------------

------------
SCF SETTINGS
------------
Hamiltonian:
 Density Functional     Method          .... DFT(GTOs)
  Functional kind                       .... Exchange-Correlation
  Functional name                       .... wB97M-V exchange-correlation functional
  Functional family                     .... Hybrid MGGA
  Functional refs                              
    [ 0] N. Mardirossian and M. Head-Gordon.,  J. Chem. Phys. 144, 214110 (2016), doi: 10.1063/1.4952647
  Fraction of HF Exchange (short range) .... 0.1500
  Fraction of HF Exchange (long range)  .... 1.0000
  Range separation parameter mu         .... 0.3000
  Functional external parameters        .... 17
    Parameter  0 _cx00      =  8.500000e-01 : u^00 coefficient for exchange
    Parameter  1 _cx01      =  1.007000e+00 : u^01 coefficient for exchange
    Parameter  2 _cx10      =  2.590000e-01 : u^10 coefficient for exchange
    Parameter  3 _css00     =  4.430000e-01 : u^00 coefficient for same-spin correlation
    Parameter  4 _css04     = -1.437000e+00 : u^04 coefficient for same-spin correlation
    Parameter  5 _css10     = -4.535000e+00 : u^10 coefficient for same-spin correlation
    Parameter  6 _css20     = -3.390000e+00 : u^20 coefficient for same-spin correlation
    Parameter  7 _css43     =  4.278000e+00 : u^43 coefficient for same-spin correlation
    Parameter  8 _cos00     =  1.000000e+00 : u^00 coefficient for opposite-spin correlation
    Parameter  9 _cos10     =  1.358000e+00 : u^10 coefficient for opposite-spin correlation
    Parameter 10 _cos20     =  2.924000e+00 : u^20 coefficient for opposite-spin correlation
    Parameter 11 _cos21     = -8.812000e+00 : u^21 coefficient for opposite-spin correlation
    Parameter 12 _cos60     = -1.390000e+00 : u^60 coefficient for opposite-spin correlation
    Parameter 13 _cos61     =  9.142000e+00 : u^61 coefficient for opposite-spin correlation
    Parameter 14 _alpha     =  1.000000e+00 : fraction of HF exchange
    Parameter 15 _beta      = -8.500000e-01 : fraction of short-range exchange
    Parameter 16 _omega     =  3.000000e-01 : range-separation constant
 Long-range corrected/Screened/Range-Separated Hybrid DFT is turned on
   Amount of maximum screened exact exchange              ....  0.850000
   Range separation parameter mu (erf(mu*r12)/r12)        ....  0.300000
 RI-approximation to the Coulomb term is turned on
   Number of AuxJ basis functions       .... 1014
   RIJ-COSX (HFX calculated with COS-X)).... on


General Settings:
 Integral files         IntName         .... orca
 Hartree-Fock type      HFTyp           .... UHF
 Total Charge           Charge          ....    0
 Multiplicity           Mult            ....    3
 Number of Electrons    NEL             ....  132
 Basis Dimension        Dim             ....  882
 Nuclear Repulsion      ENuc            ....   1474.6350570251 Eh

Convergence Acceleration:
 AO-DIIS                CNVDIIS         .... on
   Start iteration      DIISMaxIt       ....    12
   Startup error        DIISStart       ....  0.200000
   # of expansion vecs  DIISMaxEq       ....     5
   Bias factor          DIISBfac        ....   1.050
   Max. coefficient     DIISMaxC        ....  10.000
 MO-DIIS                CNVKDIIS        .... off
 Trust-Rad. Augm. Hess. CNVTRAH         .... auto
   Auto Start mean grad. ratio tolernc. ....  1.125000
   Auto Start start iteration           ....    50
   Auto Start num. interpolation iter.  ....    10
   Max. Number of Micro iterations      ....    24
   Max. Number of Macro iterations      .... Maxiter - #DIIS iter
   Number of Davidson start vectors     ....     2
   Converg. threshold    (grad. norm)   ....   1.000e-05
   Grad. Scal. Fac. for Micro threshold ....   0.100
   Minimum threshold for Micro iter.    ....   1.000e-02
   NR start threshold (gradient norm)   ....   1.000e-04
   Initial trust radius                 ....   0.400
   Minimum AH scaling param. (alpha)    ....   1.000
   Maximum AH scaling param. (alpha)    .... 1000.000
   Quad. conv. algorithm                .... NR
   White noise on init. David. guess    .... on
   Maximum white noise                  ....   0.010
   Pseudo random numbers                .... off
   Inactive MOs                         .... canonical
   Orbital update algorithm             .... Taylor
   Preconditioner                       .... Diag
   Full preconditioner red. dimension   ....   250
 SOSCF                  CNVSOSCF        .... on
   Start iteration      SOSCFMaxIt      ....   150
   Startup grad/error   SOSCFStart      ....  0.003300
   Hessian update       SOSCFHessUp     .... L-BFGS
 Level Shifting         CNVShift        .... on
   Level shift para.    LevelShift      ....    0.2500
   Turn off err/grad.   ShiftErr        ....    0.0010
 Zerner damping         CNVZerner       .... off
 Static damping         CNVDamp         .... on
   Fraction old density DampFac         ....    0.7000
   Max. Damping (<1)    DampMax         ....    0.9800
   Min. Damping (>=0)   DampMin         ....    0.0000
   Turn off err/grad.   DampErr         ....    0.1000

SCF Procedure:
 Maximum # iterations   MaxIter         ....   125
 SCF integral mode      SCFMode         .... Direct
   Integral package                     .... SHARK and LIBINT hybrid scheme
 Reset frequency        DirectResetFreq ....    20
 Integral Threshold     Thresh          ....  1.000e-12 Eh
 Primitive CutOff       TCut            ....  1.000e-13 Eh

Convergence Tolerance:
 Convergence Check Mode ConvCheckMode   .... Total+1el-Energy
 Convergence forced     ConvForced      .... 1
 Energy Change          TolE            ....  1.000e-08 Eh
 1-El. energy change                    ....  1.000e-05 Eh
 Orbital Gradient       TolG            ....  1.000e-05
 Orbital Rotation angle TolX            ....  1.000e-05
 DIIS Error             TolErr          ....  5.000e-07

------------------------------
INITIAL GUESS: MODEL POTENTIAL
------------------------------
Loading Hartree-Fock densities                     ... done
Calculating cut-offs                               ... done
Initializing the effective Hamiltonian             ... done
Setting up the integral package (SHARK)            ... done
Starting the Coulomb interaction                   ... done (   0.1 sec)
Making the grid                                    ... done (   0.2 sec)
Mapping shells                                     ... done
Starting the XC term evaluation                    ... done (   0.1 sec)
  promolecular density results
     # of electrons  =    132.000932924
     EX              =   -113.762250216
     EC              =     -4.506477883
     EX+EC           =   -118.268728099
Transforming the Hamiltonian                       ... done (   0.1 sec)
Diagonalizing the Hamiltonian                      ... done (   0.1 sec)
Back transforming the eigenvectors                 ... done (   0.1 sec)
Now organizing SCF variables                       ... done
                      ------------------
                      INITIAL GUESS DONE (   1.1 sec)
                      ------------------
             **** ENERGY FILE WAS UPDATED (orca.en.tmp) ****
Finished Guess after   3.6 sec
Maximum memory used throughout the entire GUESS-calculation: 73.0 MB
[1741443711.925409] [ohm:1888834:0]        ib_iface.c:1059 UCX  ERROR ibv_create_cq(cqe=256) failed: Connection timed out
[1741443711.941890] [ohm:1888835:0]        ib_iface.c:1059 UCX  ERROR ibv_create_cq(cqe=256) failed: Connection timed out
[1741443711.958496] [ohm:1888837:0]        ib_iface.c:1059 UCX  ERROR ibv_create_cq(cqe=256) failed: Connection timed out
[1741443712.001695] [ohm:1888836:0]        ib_iface.c:1059 UCX  ERROR ibv_create_cq(cqe=256) failed: Connection timed out
[1741443712.019050] [ohm:1888838:0]        ib_iface.c:1059 UCX  ERROR ibv_create_cq(cqe=256) failed: Connection timed out
[1741443712.020249] [ohm:1888844:0]        ib_iface.c:1059 UCX  ERROR ibv_create_cq(cqe=256) failed: Connection timed out
[1741443712.023905] [ohm:1888861:0]        ib_iface.c:1059 UCX  ERROR ibv_create_cq(cqe=256) failed: Connection timed out
[1741443712.026591] [ohm:1888846:0]        ib_iface.c:1059 UCX  ERROR ibv_create_cq(cqe=256) failed: Connection timed out
[1741443712.035289] [ohm:1888840:0]        ib_iface.c:1059 UCX  ERROR ibv_create_cq(cqe=256) failed: Connection timed out
[1741443712.070063] [ohm:1888883:0]        ib_iface.c:1059 UCX  ERROR ibv_create_cq(cqe=256) failed: Connection timed out
[1741443712.081698] [ohm:1888842:0]        ib_iface.c:1059 UCX  ERROR ibv_create_cq(cqe=256) failed: Connection timed out
[1741443712.087090] [ohm:1888983:0]        ib_iface.c:1059 UCX  ERROR ibv_create_cq(cqe=256) failed: Connection timed out
[1741443712.088038] [ohm:1888896:0]        ib_iface.c:1059 UCX  ERROR ibv_create_cq(cqe=256) failed: Connection timed out
[1741443712.088721] [ohm:1888954:0]        ib_iface.c:1059 UCX  ERROR ibv_create_cq(cqe=256) failed: Connection timed out
[1741443712.090736] [ohm:1888864:0]        ib_iface.c:1059 UCX  ERROR ibv_create_cq(cqe=256) failed: Connection timed out
[1741443712.101697] [ohm:1888906:0]        ib_iface.c:1059 UCX  ERROR ibv_create_cq(cqe=256) failed: Connection timed out
[1741443712.146379] [ohm:1888867:0]        ib_iface.c:1059 UCX  ERROR ibv_create_cq(cqe=256) failed: Connection timed out
[1741443712.158450] [ohm:1888923:0]        ib_iface.c:1059 UCX  ERROR ibv_create_cq(cqe=256) failed: Connection timed out
[1741443712.192353] [ohm:1888905:0]        ib_iface.c:1059 UCX  ERROR ibv_create_cq(cqe=256) failed: Connection timed out
[1741443712.192565] [ohm:1888848:0]        ib_iface.c:1059 UCX  ERROR ibv_create_cq(cqe=256) failed: Connection timed out
[1741443712.203210] [ohm:1888974:0]        ib_iface.c:1059 UCX  ERROR ibv_create_cq(cqe=256) failed: Connection timed out
[1741443712.210245] [ohm:1888889:0]        ib_iface.c:1059 UCX  ERROR ibv_create_cq(cqe=256) failed: Connection timed out
[1741443712.210588] [ohm:1888903:0]        ib_iface.c:1059 UCX  ERROR ibv_create_cq(cqe=256) failed: Connection timed out
[1741443712.211432] [ohm:1888927:0]        ib_iface.c:1059 UCX  ERROR ibv_create_cq(cqe=256) failed: Connection timed out
[1741443712.218067] [ohm:1888876:0]        ib_iface.c:1059 UCX  ERROR ibv_create_cq(cqe=256) failed: Connection timed out
[1741443712.219318] [ohm:1888890:0]        ib_iface.c:1059 UCX  ERROR ibv_create_cq(cqe=256) failed: Connection timed out
[1741443712.220660] [ohm:1888944:0]        ib_iface.c:1059 UCX  ERROR ibv_create_cq(cqe=256) failed: Connection timed out
[1741443712.223351] [ohm:1888976:0]        ib_iface.c:1059 UCX  ERROR ibv_create_cq(cqe=256) failed: Connection timed out
[1741443712.225548] [ohm:1888967:0]        ib_iface.c:1059 UCX  ERROR ibv_create_cq(cqe=256) failed: Connection timed out
[1741443712.228292] [ohm:1888847:0]        ib_iface.c:1059 UCX  ERROR ibv_create_cq(cqe=256) failed: Connection timed out
[1741443712.231091] [ohm:1888965:0]        ib_iface.c:1059 UCX  ERROR ibv_create_cq(cqe=256) failed: Connection timed out
[1741443712.239229] [ohm:1888895:0]        ib_iface.c:1059 UCX  ERROR ibv_create_cq(cqe=256) failed: Connection timed out
[1741443712.239942] [ohm:1888898:0]        ib_iface.c:1059 UCX  ERROR ibv_create_cq(cqe=256) failed: Connection timed out
[1741443712.249503] [ohm:1888843:0]        ib_iface.c:1059 UCX  ERROR ibv_create_cq(cqe=256) failed: Connection timed out
[1741443712.254281] [ohm:1888863:0]        ib_iface.c:1059 UCX  ERROR ibv_create_cq(cqe=256) failed: Connection timed out
[1741443712.256796] [ohm:1888902:0]        ib_iface.c:1059 UCX  ERROR ibv_create_cq(cqe=256) failed: Connection timed out
[1741443712.256906] [ohm:1888916:0]        ib_iface.c:1059 UCX  ERROR ibv_create_cq(cqe=256) failed: Connection timed out
[1741443712.270455] [ohm:1888913:0]        ib_iface.c:1059 UCX  ERROR ibv_create_cq(cqe=256) failed: Connection timed out
[1741443712.276024] [ohm:1888892:0]        ib_iface.c:1059 UCX  ERROR ibv_create_cq(cqe=256) failed: Connection timed out
[1741443712.276636] [ohm:1888899:0]        ib_iface.c:1059 UCX  ERROR ibv_create_cq(cqe=256) failed: Connection timed out
[1741443712.281555] [ohm:1888845:0]        ib_iface.c:1059 UCX  ERROR ibv_create_cq(cqe=256) failed: Connection timed out
[1741443712.288669] [ohm:1888937:0]        ib_iface.c:1059 UCX  ERROR ibv_create_cq(cqe=256) failed: Connection timed out
[1741443712.294517] [ohm:1888872:0]        ib_iface.c:1059 UCX  ERROR ibv_create_cq(cqe=256) failed: Connection timed out
[1741443712.294859] [ohm:1888940:0]        ib_iface.c:1059 UCX  ERROR ibv_create_cq(cqe=256) failed: Connection timed out
[1741443712.298307] [ohm:1888894:0]        ib_iface.c:1059 UCX  ERROR ibv_create_cq(cqe=256) failed: Connection timed out
[1741443712.298981] [ohm:1888952:0]        ib_iface.c:1059 UCX  ERROR ibv_create_cq(cqe=256) failed: Connection timed out
[1741443712.299488] [ohm:1888862:0]        ib_iface.c:1059 UCX  ERROR ibv_create_cq(cqe=256) failed: Connection timed out
[1741443712.302275] [ohm:1888958:0]        ib_iface.c:1059 UCX  ERROR ibv_create_cq(cqe=256) failed: Connection timed out
[1741443712.305138] [ohm:1888887:0]        ib_iface.c:1059 UCX  ERROR ibv_create_cq(cqe=256) failed: Connection timed out
[1741443712.305826] [ohm:1888945:0]        ib_iface.c:1059 UCX  ERROR ibv_create_cq(cqe=256) failed: Connection timed out
[1741443712.307100] [ohm:1888920:0]        ib_iface.c:1059 UCX  ERROR ibv_create_cq(cqe=256) failed: Connection timed out
[1741443712.309156] [ohm:1888900:0]        ib_iface.c:1059 UCX  ERROR ibv_create_cq(cqe=256) failed: Connection timed out
[1741443712.310358] [ohm:1888870:0]        ib_iface.c:1059 UCX  ERROR ibv_create_cq(cqe=256) failed: Connection timed out
[1741443712.310345] [ohm:1888882:0]        ib_iface.c:1059 UCX  ERROR ibv_create_cq(cqe=256) failed: Connection timed out
[1741443712.310789] [ohm:1888893:0]        ib_iface.c:1059 UCX  ERROR ibv_create_cq(cqe=256) failed: Connection timed out
[1741443712.312505] [ohm:1888901:0]        ib_iface.c:1059 UCX  ERROR ibv_create_cq(cqe=256) failed: Connection timed out
[1741443712.312811] [ohm:1888841:0]        ib_iface.c:1059 UCX  ERROR ibv_create_cq(cqe=256) failed: Connection timed out
[1741443712.315563] [ohm:1888839:0]        ib_iface.c:1059 UCX  ERROR ibv_create_cq(cqe=256) failed: Connection timed out
[1741443712.316767] [ohm:1888981:0]        ib_iface.c:1059 UCX  ERROR ibv_create_cq(cqe=256) failed: Connection timed out
[1741443712.318154] [ohm:1888962:0]        ib_iface.c:1059 UCX  ERROR ibv_create_cq(cqe=256) failed: Connection timed out
[1741443712.318522] [ohm:1888932:0]        ib_iface.c:1059 UCX  ERROR ibv_create_cq(cqe=256) failed: Connection timed out
[1741443712.324162] [ohm:1888897:0]        ib_iface.c:1059 UCX  ERROR ibv_create_cq(cqe=256) failed: Connection timed out
[1741443712.325025] [ohm:1888910:0]        ib_iface.c:1059 UCX  ERROR ibv_create_cq(cqe=256) failed: Connection timed out
[1741443712.326652] [ohm:1888935:0]        ib_iface.c:1059 UCX  ERROR ibv_create_cq(cqe=256) failed: Connection timed out


           ************************************************************
           *        Program running with 64 parallel MPI-processes    *
           *              working on a common directory               *
           ************************************************************

-------------------------------------------------------------------------------------------
                                      ORCA LEAN-SCF
                              memory conserving SCF solver
-------------------------------------------------------------------------------------------

----------------------------------------D-I-I-S--------------------------------------------
Iteration    Energy (Eh)           Delta-E    RMSDP     MaxDP     DIISErr   Damp  Time(sec)
-------------------------------------------------------------------------------------------
               ***  Starting incremental Fock matrix formation  ***
    1    -908.0433508462535883     0.00e+00  1.90e-03  3.31e-01  1.44e-01  0.700   7.9
    2    -908.3151358818101926    -2.72e-01  1.53e-03  2.35e-01  7.03e-02  0.700   6.6
                               ***Turning on AO-DIIS***
    3    -908.4396913492116710    -1.25e-01  1.07e-03  1.52e-01  2.79e-02  0.700   5.9
    4    -908.5152144192277319    -7.55e-02  2.44e-03  3.49e-01  1.95e-02  0.000   5.8
    5    -908.6832749627931207    -1.68e-01  2.74e-04  4.09e-02  4.02e-03  0.000   5.9
                              *** Initializing SOSCF ***
---------------------------------------S-O-S-C-F--------------------------------------
Iteration    Energy (Eh)           Delta-E    RMSDP     MaxDP     MaxGrad    Time(sec)
--------------------------------------------------------------------------------------
    6    -908.6846831378600200    -1.41e-03  1.72e-04  2.38e-02  2.90e-03     6.6
               *** Restarting incremental Fock matrix formation ***
    7    -908.6856820450786927    -9.99e-04  4.59e-04  5.25e-02  9.13e-03     7.6
               *** Scaled step length from 0.401610 to 0.200000 ***
Curvature condition for BFGS not met. Restarting diagonal Hessian.
    8    -908.6881291031138517    -2.45e-03  4.64e-03  5.10e-01  1.10e-02     7.6
               *** Scaled step length from 0.228687 to 0.200000 ***
    9    -908.6803216354335291     7.81e-03  3.47e-03  4.54e-01  3.49e-02     7.2
   10    -908.6845342863064161    -4.21e-03  1.76e-03  2.03e-01  2.58e-02     7.2
               *** Scaled step length from 0.269429 to 0.200000 ***
   11    -908.6934063499140848    -8.87e-03  2.66e-03  4.49e-01  1.42e-02     7.1
               *** Scaled step length from 0.548691 to 0.200000 ***
   12    -908.7011315626534724    -7.73e-03  2.21e-03  4.92e-01  1.60e-02     7.2
   13    -908.7054702509010440    -4.34e-03  1.65e-03  2.30e-01  8.41e-03     7.2
   14    -908.7075492551796287    -2.08e-03  1.33e-03  2.64e-01  3.66e-03     7.1
   15    -908.7083412378408411    -7.92e-04  2.21e-04  3.40e-02  2.72e-03     7.1
   16    -908.7084705674144516    -1.29e-04  1.88e-04  3.03e-02  1.60e-03     6.9
   17    -908.7085176961656998    -4.71e-05  1.32e-04  2.04e-02  6.41e-04     6.7
   18    -908.7085286061599163    -1.09e-05  5.69e-05  1.12e-02  1.68e-04     6.6
   19    -908.7085318957817890    -3.29e-06  2.34e-05  4.49e-03  7.00e-05     6.5
   20    -908.7085324803726962    -5.85e-07  9.29e-06  1.85e-03  4.58e-05     6.3
   21    -908.7085326390881619    -1.59e-07  4.33e-06  9.31e-04  2.30e-05     6.1
   22    -908.7085326453727703    -6.28e-09  2.18e-06  5.02e-04  9.30e-06     5.9
                 **** Energy Check signals convergence ****

               *****************************************************
               *                     SUCCESS                       *
               *           SCF CONVERGED AFTER  22 CYCLES          *
               *****************************************************

Recomputing exchange energy using gridx3       ... done (    8.027 sec)
Old exchange energy                            :    -35.100592931 Eh
New exchange energy                            :    -35.100601714 Eh
Exchange energy change after final integration :     -0.000008784 Eh
Total energy after final integration           :   -908.708541429 Eh
             **** ENERGY FILE WAS UPDATED (orca.en.tmp) ****

----------------
TOTAL SCF ENERGY
----------------

Total Energy       :       -908.70854142918552 Eh          -24727.21652 eV

Components:
Nuclear Repulsion  :       1474.63505702511861 Eh           40126.85991 eV
Electronic Energy  :      -2383.34358967049138 Eh          -64854.07619 eV
One Electron Energy:      -4166.30236964364121 Eh         -113370.85114 eV
Two Electron Energy:       1782.95877997314960 Eh           48516.77495 eV

Virial components:
Potential Energy   :      -1816.23774532351717 Eh          -49422.34163 eV
Kinetic Energy     :        907.52920389433166 Eh           24695.12511 eV
Virial Ratio       :          2.00129950367414

DFT components:
N(Alpha)           :       67.000024697637 electrons
N(Beta)            :       65.000007854437 electrons
N(Total)           :      132.000032552073 electrons
E(XC)              :      -86.555591563301 Eh       

---------------
SCF CONVERGENCE
---------------

  Last Energy change         ...    6.2846e-09  Tolerance :   1.0000e-08
  Last MAX-Density change    ...    5.0244e-04  Tolerance :   1.0000e-07
  Last RMS-Density change    ...    2.1798e-06  Tolerance :   5.0000e-09
  Last DIIS Error            ...    2.8958e-03  Tolerance :   5.0000e-07
  Last Orbital Gradient      ...    9.2998e-06  Tolerance :   1.0000e-05
  Last Orbital Rotation      ...    5.9103e-05  Tolerance :   1.0000e-05


----------------------
UHF SPIN CONTAMINATION
----------------------

Warning: in a DFT calculation there is little theoretical justification to 
         calculate <S**2> as in Hartree-Fock theory. We will do it anyways
         but you should keep in mind that the values have only limited relevance

Expectation value of <S**2>     :     2.009211
Ideal value S*(S+1) for S=1.0   :     2.000000
Deviation                       :     0.009211

----------------
ORBITAL ENERGIES
----------------
                 SPIN UP ORBITALS
  NO   OCC          E(Eh)            E(eV) 
   0   1.0000     -19.325515      -525.8740 
   1   1.0000     -19.318323      -525.6783 
   2   1.0000     -19.315130      -525.5914 
   3   1.0000     -19.313159      -525.5378 
   4   1.0000     -14.586606      -396.9217 
   5   1.0000     -14.575970      -396.6323 
   6   1.0000     -14.562250      -396.2590 
   7   1.0000     -14.554757      -396.0551 
   8   1.0000     -10.502682      -285.7925 
   9   1.0000     -10.499349      -285.7018 
  10   1.0000     -10.464787      -284.7613 
  11   1.0000     -10.456922      -284.5473 
  12   1.0000     -10.431368      -283.8520 
  13   1.0000     -10.398594      -282.9601 
  14   1.0000     -10.394665      -282.8532 
  15   1.0000     -10.373821      -282.2860 
  16   1.0000     -10.358330      -281.8645 
  17   1.0000     -10.351772      -281.6860 
  18   1.0000      -1.244893       -33.8753 
  19   1.0000      -1.232317       -33.5331 
  20   1.0000      -1.200395       -32.6644 
  21   1.0000      -1.197183       -32.5770 
  22   1.0000      -1.138060       -30.9682 
  23   1.0000      -1.126364       -30.6499 
  24   1.0000      -1.078729       -29.3537 
  25   1.0000      -1.076322       -29.2882 
  26   1.0000      -0.983573       -26.7644 
  27   1.0000      -0.963811       -26.2266 
  28   1.0000      -0.860518       -23.4159 
  29   1.0000      -0.853790       -23.2328 
  30   1.0000      -0.823559       -22.4102 
  31   1.0000      -0.817047       -22.2330 
  32   1.0000      -0.805096       -21.9078 
  33   1.0000      -0.798940       -21.7403 
  34   1.0000      -0.707851       -19.2616 
  35   1.0000      -0.705198       -19.1894 
  36   1.0000      -0.699765       -19.0416 
  37   1.0000      -0.695235       -18.9183 
  38   1.0000      -0.657809       -17.8999 
  39   1.0000      -0.640744       -17.4355 
  40   1.0000      -0.637964       -17.3599 
  41   1.0000      -0.609250       -16.5785 
  42   1.0000      -0.597084       -16.2475 
  43   1.0000      -0.592668       -16.1273 
  44   1.0000      -0.582579       -15.8528 
  45   1.0000      -0.571666       -15.5558 
  46   1.0000      -0.563589       -15.3360 
  47   1.0000      -0.556037       -15.1305 
  48   1.0000      -0.551032       -14.9944 
  49   1.0000      -0.548737       -14.9319 
  50   1.0000      -0.538772       -14.6607 
  51   1.0000      -0.536102       -14.5881 
  52   1.0000      -0.533482       -14.5168 
  53   1.0000      -0.514019       -13.9872 
  54   1.0000      -0.503957       -13.7134 
  55   1.0000      -0.493748       -13.4356 
  56   1.0000      -0.492529       -13.4024 
  57   1.0000      -0.470820       -12.8117 
  58   1.0000      -0.419602       -11.4180 
  59   1.0000      -0.411810       -11.2059 
  60   1.0000      -0.410655       -11.1745 
  61   1.0000      -0.399703       -10.8765 
  62   1.0000      -0.387776       -10.5519 
  63   1.0000      -0.383214       -10.4278 
  64   1.0000      -0.379620       -10.3300 
  65   1.0000      -0.336640        -9.1604 
  66   1.0000      -0.218987        -5.9589 
  67   0.0000       0.009120         0.2482 
  68   0.0000       0.015673         0.4265 
  69   0.0000       0.031290         0.8515 
  70   0.0000       0.037397         1.0176 
  71   0.0000       0.039702         1.0804 
  72   0.0000       0.055957         1.5227 
  73   0.0000       0.059922         1.6306 
  74   0.0000       0.063500         1.7279 
  75   0.0000       0.067852         1.8463 
  76   0.0000       0.068536         1.8650 
  77   0.0000       0.076164         2.0725 

                 SPIN DOWN ORBITALS
  NO   OCC          E(Eh)            E(eV) 
   0   1.0000     -19.323493      -525.8190 
   1   1.0000     -19.314936      -525.5861 
   2   1.0000     -19.313247      -525.5402 
   3   1.0000     -19.313011      -525.5338 
   4   1.0000     -14.582817      -396.8186 
   5   1.0000     -14.575697      -396.6249 
   6   1.0000     -14.562281      -396.2598 
   7   1.0000     -14.553801      -396.0291 
   8   1.0000     -10.502860      -285.7973 
   9   1.0000     -10.499358      -285.7021 
  10   1.0000     -10.464756      -284.7605 
  11   1.0000     -10.456839      -284.5451 
  12   1.0000     -10.430780      -283.8360 
  13   1.0000     -10.388847      -282.6949 
  14   1.0000     -10.383628      -282.5529 
  15   1.0000     -10.373823      -282.2861 
  16   1.0000     -10.358652      -281.8732 
  17   1.0000     -10.351684      -281.6836 
  18   1.0000      -1.240723       -33.7618 
  19   1.0000      -1.231891       -33.5215 
  20   1.0000      -1.197236       -32.5784 
  21   1.0000      -1.192623       -32.4529 
  22   1.0000      -1.128930       -30.7197 
  23   1.0000      -1.125460       -30.6253 
  24   1.0000      -1.076116       -29.2826 
  25   1.0000      -1.073835       -29.2205 
  26   1.0000      -0.966288       -26.2940 
  27   1.0000      -0.957999       -26.0685 
  28   1.0000      -0.853171       -23.2160 
  29   1.0000      -0.847203       -23.0536 
  30   1.0000      -0.817989       -22.2586 
  31   1.0000      -0.812314       -22.1042 
  32   1.0000      -0.799277       -21.7494 
  33   1.0000      -0.798380       -21.7250 
  34   1.0000      -0.699785       -19.0421 
  35   1.0000      -0.699733       -19.0407 
  36   1.0000      -0.694657       -18.9026 
  37   1.0000      -0.693000       -18.8575 
  38   1.0000      -0.647240       -17.6123 
  39   1.0000      -0.637093       -17.3362 
  40   1.0000      -0.634513       -17.2660 
  41   1.0000      -0.600982       -16.3535 
  42   1.0000      -0.592011       -16.1094 
  43   1.0000      -0.588093       -16.0028 
  44   1.0000      -0.566614       -15.4183 
  45   1.0000      -0.564700       -15.3663 
  46   1.0000      -0.561105       -15.2684 
  47   1.0000      -0.549460       -14.9516 
  48   1.0000      -0.547649       -14.9023 
  49   1.0000      -0.541085       -14.7237 
  50   1.0000      -0.534338       -14.5401 
  51   1.0000      -0.529941       -14.4204 
  52   1.0000      -0.522202       -14.2098 
  53   1.0000      -0.507332       -13.8052 
  54   1.0000      -0.496230       -13.5031 
  55   1.0000      -0.493253       -13.4221 
  56   1.0000      -0.470841       -12.8122 
  57   1.0000      -0.452849       -12.3227 
  58   1.0000      -0.415255       -11.2997 
  59   1.0000      -0.410310       -11.1651 
  60   1.0000      -0.399197       -10.8627 
  61   1.0000      -0.388704       -10.5772 
  62   1.0000      -0.382514       -10.4087 
  63   1.0000      -0.380261       -10.3474 
  64   1.0000      -0.337452        -9.1825 
  65   0.0000      -0.096343        -2.6216 
  66   0.0000       0.009051         0.2463 
  67   0.0000       0.018249         0.4966 
  68   0.0000       0.029243         0.7957 
  69   0.0000       0.036547         0.9945 
  70   0.0000       0.038920         1.0591 
  71   0.0000       0.053490         1.4555 
  72   0.0000       0.057961         1.5772 
  73   0.0000       0.062123         1.6904 
  74   0.0000       0.064169         1.7461 
  75   0.0000       0.067677         1.8416 
*Only the first 10 virtual orbitals were printed.

                    ********************************
                    * MULLIKEN POPULATION ANALYSIS *
                    ********************************

--------------------------------------------
MULLIKEN ATOMIC CHARGES AND SPIN POPULATIONS
--------------------------------------------
   0 O :   -0.680966    0.006508
   1 O :   -0.682601    0.192456
   2 O :   -0.656020    0.007022
   3 O :   -0.656719    0.073425
   4 N :   -0.043385    0.012503
   5 N :   -0.028111    0.198297
   6 N :    0.043939   -0.000054
[...]
[1741444044.996230] [ohm:1891555:0]        ib_iface.c:1059 UCX  ERROR ibv_create_cq(cqe=256) failed: Connection timed out
[1741444044.996975] [ohm:1891430:0]        ib_iface.c:1059 UCX  ERROR ibv_create_cq(cqe=256) failed: Connection timed out
[1741444044.997829] [ohm:1891425:0]        ib_iface.c:1059 UCX  ERROR ibv_create_cq(cqe=256) failed: Connection timed out
[1741444044.998078] [ohm:1891422:0]        ib_iface.c:1059 UCX  ERROR ibv_create_cq(cqe=256) failed: Connection timed out
[1741444044.999929] [ohm:1891535:0]        ib_iface.c:1059 UCX  ERROR ibv_create_cq(cqe=256) failed: Connection timed out
[1741444044.999929] [ohm:1891445:0]        ib_iface.c:1059 UCX  ERROR ibv_create_cq(cqe=256) failed: Connection timed out
[1741444045.001190] [ohm:1891423:0]        ib_iface.c:1059 UCX  ERROR ibv_create_cq(cqe=256) failed: Connection timed out
[1741444045.002667] [ohm:1891424:0]        ib_iface.c:1059 UCX  ERROR ibv_create_cq(cqe=256) failed: Connection timed out
[1741444045.003498] [ohm:1891419:0]        ib_iface.c:1059 UCX  ERROR ibv_create_cq(cqe=256) failed: Connection timed out
[1741444045.010052] [ohm:1891413:0]        ib_iface.c:1059 UCX  ERROR ibv_create_cq(cqe=256) failed: Connection timed out


           ************************************************************
           *        Program running with 64 parallel MPI-processes    *
           *              working on a common directory               *
           ************************************************************

------------------------------------------------------------------------------
                              ORCA PROPERTY CALCULATIONS
------------------------------------------------------------------------------

GBWName                                 ... orca.gbw
Number of atoms                         ...     30
Number of basis functions               ...    882
Max core memory                         ...   1024 MB

Electric properties:
Dipole moment                           ... YES
Quadrupole moment                       ...  NO
Static polarizability (Dipole/Dipole)   ...  NO
Static polarizability (Dipole/Quad.)    ...  NO
Static polarizability (Quad./Quad.)     ...  NO
Static polarizability (Velocity)        ...  NO

Atomic electric properties:
Dipole moment                           ...  NO
Quadrupole moment                       ...  NO
Static polarizability                   ...  NO

Choice of electric origin               ... Center of mass
Position of electric origin             ...    -0.005973    -0.006236     0.058369

General magnetic properties:
Magnetizability                         ...  NO

EPR properties:
g-Tensor (aka g-matrix)                 ...  NO
Zero-Field splitting spin-orbit         ...  NO
Zero-field splitting spin-spin          ...  NO
Hyperfine couplings                     ...  NO (   0 nuclei)
Quadrupole couplings                    ...  NO (   0 nuclei)
Contact density                         ...  NO (   0 nuclei)

NMR properties:
Chemical shifts                         ...  NO (   0 nuclei)
Spin-rotation constants                 ...  NO (   0 nuclei)
Spin-spin couplings                     ...  NO (   0 nuclei,    0 pairs)

Choice of magnetic origin               ... GIAO
Position of magnetic origin             ...     0.000000     0.000000     0.000000

Properties with geometric perturbations:
SCF Hessian                             ...  NO
IR spectrum                             ...  NO
VCD spectrum                            ...  NO
X-ray spectroscopy properties:
SCF XES/XAS/RIXS spectra                ...  NO


-------------
DIPOLE MOMENT
-------------

Method             : SCF
Type of density    : Electron Density
Multiplicity       :   3
Irrep              :   0
Energy             :  -908.7085414291855159 Eh
Relativity type    : 
Basis              : AO
                                X                 Y                 Z
Electronic contribution:     -2.770469164     -10.069014046      -6.247248810
Nuclear contribution   :      2.317983721      10.992254043       8.790760862
                        -----------------------------------------
Total Dipole Moment    :     -0.452485443       0.923239997       2.543512052
                        -----------------------------------------
Magnitude (a.u.)       :      2.743459263
Magnitude (Debye)      :      6.973319268



--------------------
Rotational spectrum 
--------------------
 
Rotational constants in cm-1:             0.017667             0.016876             0.013757 
Rotational constants in MHz :           529.654178           505.941468           412.423473 

Dipole components along the rotational axes: 
x,y,z [a.u.] :    -0.387395     1.120015     2.474280 
x,y,z [Debye]:    -0.984681     2.846852     6.289119 

 

-------------
DIPOLE MOMENT
-------------

Method             : TDA/CIS
Type of density    : Electron Density
Level              : Relaxed density
State              :   1
Multiplicity       :   3
Irrep              :   0
Energy             :     0.0000000000000000 Eh
Relativity type    : 
Basis              : AO
                                X                 Y                 Z
Electronic contribution:     -2.884059499     -10.151392840      -6.030437723
Nuclear contribution   :      2.317983721      10.992254043       8.790760862
                        -----------------------------------------
Total Dipole Moment    :     -0.566075778       0.840861203       2.760323138
                        -----------------------------------------
Magnitude (a.u.)       :      2.940556610
Magnitude (Debye)      :      7.474300910



--------------------
Rotational spectrum 
--------------------
 
Rotational constants in cm-1:             0.017667             0.016876             0.013757 
Rotational constants in MHz :           529.654178           505.941468           412.423473 

Dipole components along the rotational axes: 
x,y,z [a.u.] :    -0.507721     1.061037     2.695050 
x,y,z [Debye]:    -1.290524     2.696942     6.850272 

 

Dipole moment calculation done in   0.2 sec 

Maximum memory used throughout the entire PROP-calculation: 82.1 MB
[1741444047.493110] [ohm:1891751:0]        ib_iface.c:1059 UCX  ERROR ibv_create_cq(cqe=256) failed: Connection timed out
[1741444047.494021] [ohm:1891756:0]        ib_iface.c:1059 UCX  ERROR ibv_create_cq(cqe=256) failed: Connection timed out
[1741444047.506328] [ohm:1891752:0]        ib_iface.c:1059 UCX  ERROR ibv_create_cq(cqe=256) failed: Connection timed out
[1741444047.513989] [ohm:1891759:0]        ib_iface.c:1059 UCX  ERROR ibv_create_cq(cqe=256) failed: Connection timed out
[1741444047.514142] [ohm:1891757:0]        ib_iface.c:1059 UCX  ERROR ibv_create_cq(cqe=256) failed: Connection timed out
[1741444047.543568] [ohm:1891758:0]        ib_iface.c:1059 UCX  ERROR ibv_create_cq(cqe=256) failed: Connection timed out
[1741444047.607367] [ohm:1891762:0]        ib_iface.c:1059 UCX  ERROR ibv_create_cq(cqe=256) failed: Connection timed out
[1741444047.650836] [ohm:1891760:0]        ib_iface.c:1059 UCX  ERROR ibv_create_cq(cqe=256) failed: Connection timed out
[1741444047.670478] [ohm:1891810:0]        ib_iface.c:1059 UCX  ERROR ibv_create_cq(cqe=256) failed: Connection timed out
[1741444047.698911] [ohm:1891784:0]        ib_iface.c:1059 UCX  ERROR ibv_create_cq(cqe=256) failed: Connection timed out
[1741444047.709862] [ohm:1891853:0]        ib_iface.c:1059 UCX  ERROR ibv_create_cq(cqe=256) failed: Connection timed out
[1741444047.719449] [ohm:1891780:0]        ib_iface.c:1059 UCX  ERROR ibv_create_cq(cqe=256) failed: Connection timed out
[1741444047.721486] [ohm:1891842:0]        ib_iface.c:1059 UCX  ERROR ibv_create_cq(cqe=256) failed: Connection timed out
[1741444047.725172] [ohm:1891776:0]        ib_iface.c:1059 UCX  ERROR ibv_create_cq(cqe=256) failed: Connection timed out
[1741444047.748778] [ohm:1891785:0]        ib_iface.c:1059 UCX  ERROR ibv_create_cq(cqe=256) failed: Connection timed out
[1741444047.752623] [ohm:1891754:0]        ib_iface.c:1059 UCX  ERROR ibv_create_cq(cqe=256) failed: Connection timed out
[1741444047.757683] [ohm:1891812:0]        ib_iface.c:1059 UCX  ERROR ibv_create_cq(cqe=256) failed: Connection timed out
[1741444047.761329] [ohm:1891769:0]        ib_iface.c:1059 UCX  ERROR ibv_create_cq(cqe=256) failed: Connection timed out
[1741444047.763853] [ohm:1891886:0]        ib_iface.c:1059 UCX  ERROR ibv_create_cq(cqe=256) failed: Connection timed out
[1741444047.768438] [ohm:1891845:0]        ib_iface.c:1059 UCX  ERROR ibv_create_cq(cqe=256) failed: Connection timed out
[1741444047.774743] [ohm:1891834:0]        ib_iface.c:1059 UCX  ERROR ibv_create_cq(cqe=256) failed: Connection timed out
[1741444047.783766] [ohm:1891787:0]        ib_iface.c:1059 UCX  ERROR ibv_create_cq(cqe=256) failed: Connection timed out
[1741444047.784140] [ohm:1891835:0]        ib_iface.c:1059 UCX  ERROR ibv_create_cq(cqe=256) failed: Connection timed out
[1741444047.785693] [ohm:1891792:0]        ib_iface.c:1059 UCX  ERROR ibv_create_cq(cqe=256) failed: Connection timed out
[1741444047.789499] [ohm:1891795:0]        ib_iface.c:1059 UCX  ERROR ibv_create_cq(cqe=256) failed: Connection timed out
[1741444047.797572] [ohm:1891765:0]        ib_iface.c:1059 UCX  ERROR ibv_create_cq(cqe=256) failed: Connection timed out
[1741444047.798434] [ohm:1891766:0]        ib_iface.c:1059 UCX  ERROR ibv_create_cq(cqe=256) failed: Connection timed out
[1741444047.812085] [ohm:1891850:0]        ib_iface.c:1059 UCX  ERROR ibv_create_cq(cqe=256) failed: Connection timed out
[1741444047.817988] [ohm:1891786:0]        ib_iface.c:1059 UCX  ERROR ibv_create_cq(cqe=256) failed: Connection timed out
[1741444047.821606] [ohm:1891791:0]        ib_iface.c:1059 UCX  ERROR ibv_create_cq(cqe=256) failed: Connection timed out
[1741444047.821997] [ohm:1891764:0]        ib_iface.c:1059 UCX  ERROR ibv_create_cq(cqe=256) failed: Connection timed out
[1741444047.830055] [ohm:1891799:0]        ib_iface.c:1059 UCX  ERROR ibv_create_cq(cqe=256) failed: Connection timed out
[1741444047.840006] [ohm:1891793:0]        ib_iface.c:1059 UCX  ERROR ibv_create_cq(cqe=256) failed: Connection timed out
[1741444047.840108] [ohm:1891877:0]        ib_iface.c:1059 UCX  ERROR ibv_create_cq(cqe=256) failed: Connection timed out
[1741444047.841827] [ohm:1891829:0]        ib_iface.c:1059 UCX  ERROR ibv_create_cq(cqe=256) failed: Connection timed out
[1741444047.851594] [ohm:1891755:0]        ib_iface.c:1059 UCX  ERROR ibv_create_cq(cqe=256) failed: Connection timed out
[1741444047.852587] [ohm:1891794:0]        ib_iface.c:1059 UCX  ERROR ibv_create_cq(cqe=256) failed: Connection timed out
[1741444047.857811] [ohm:1891773:0]        ib_iface.c:1059 UCX  ERROR ibv_create_cq(cqe=256) failed: Connection timed out
[1741444047.859594] [ohm:1891800:0]        ib_iface.c:1059 UCX  ERROR ibv_create_cq(cqe=256) failed: Connection timed out
[1741444047.863541] [ohm:1891864:0]        ib_iface.c:1059 UCX  ERROR ibv_create_cq(cqe=256) failed: Connection timed out
[1741444047.867130] [ohm:1891871:0]        ib_iface.c:1059 UCX  ERROR ibv_create_cq(cqe=256) failed: Connection timed out
[1741444047.868813] [ohm:1891900:0]        ib_iface.c:1059 UCX  ERROR ibv_create_cq(cqe=256) failed: Connection timed out
[1741444047.870745] [ohm:1891860:0]        ib_iface.c:1059 UCX  ERROR ibv_create_cq(cqe=256) failed: Connection timed out
[1741444047.878781] [ohm:1891790:0]        ib_iface.c:1059 UCX  ERROR ibv_create_cq(cqe=256) failed: Connection timed out
[1741444047.881621] [ohm:1891806:0]        ib_iface.c:1059 UCX  ERROR ibv_create_cq(cqe=256) failed: Connection timed out
[1741444047.887429] [ohm:1891767:0]        ib_iface.c:1059 UCX  ERROR ibv_create_cq(cqe=256) failed: Connection timed out
[1741444047.901216] [ohm:1891788:0]        ib_iface.c:1059 UCX  ERROR ibv_create_cq(cqe=256) failed: Connection timed out
[1741444047.902527] [ohm:1891838:0]        ib_iface.c:1059 UCX  ERROR ibv_create_cq(cqe=256) failed: Connection timed out
[1741444047.903148] [ohm:1891878:0]        ib_iface.c:1059 UCX  ERROR ibv_create_cq(cqe=256) failed: Connection timed out
[1741444047.909689] [ohm:1891868:0]        ib_iface.c:1059 UCX  ERROR ibv_create_cq(cqe=256) failed: Connection timed out
[1741444047.915075] [ohm:1891825:0]        ib_iface.c:1059 UCX  ERROR ibv_create_cq(cqe=256) failed: Connection timed out
[1741444047.915373] [ohm:1891789:0]        ib_iface.c:1059 UCX  ERROR ibv_create_cq(cqe=256) failed: Connection timed out
[1741444047.919311] [ohm:1891803:0]        ib_iface.c:1059 UCX  ERROR ibv_create_cq(cqe=256) failed: Connection timed out
[1741444047.923696] [ohm:1891753:0]        ib_iface.c:1059 UCX  ERROR ibv_create_cq(cqe=256) failed: Connection timed out
[1741444047.926455] [ohm:1891763:0]        ib_iface.c:1059 UCX  ERROR ibv_create_cq(cqe=256) failed: Connection timed out
[1741444047.927858] [ohm:1891893:0]        ib_iface.c:1059 UCX  ERROR ibv_create_cq(cqe=256) failed: Connection timed out
[1741444047.928792] [ohm:1891761:0]        ib_iface.c:1059 UCX  ERROR ibv_create_cq(cqe=256) failed: Connection timed out
[1741444047.929191] [ohm:1891888:0]        ib_iface.c:1059 UCX  ERROR ibv_create_cq(cqe=256) failed: Connection timed out
[1741444047.929261] [ohm:1891856:0]        ib_iface.c:1059 UCX  ERROR ibv_create_cq(cqe=256) failed: Connection timed out
[1741444047.929308] [ohm:1891863:0]        ib_iface.c:1059 UCX  ERROR ibv_create_cq(cqe=256) failed: Connection timed out
[1741444047.929758] [ohm:1891797:0]        ib_iface.c:1059 UCX  ERROR ibv_create_cq(cqe=256) failed: Connection timed out
[1741444047.929951] [ohm:1891818:0]        ib_iface.c:1059 UCX  ERROR ibv_create_cq(cqe=256) failed: Connection timed out
[1741444047.930517] [ohm:1891884:0]        ib_iface.c:1059 UCX  ERROR ibv_create_cq(cqe=256) failed: Connection timed out
[1741444047.930582] [ohm:1891822:0]        ib_iface.c:1059 UCX  ERROR ibv_create_cq(cqe=256) failed: Connection timed out

--------------------------------
SUGGESTED CITATIONS FOR THIS RUN
--------------------------------

Below you find a list of papers that are relevant to this ORCA run
We neither can nor want to force you to cite these papers, but we appreciate if you do
You receive ORCA, which is the product of decades of hard work by many enthusiastic individuals, for free
The only thing we kindly ask in return is that you cite our papers,
We deeply appreciate it, if you show your appreciation for ORCA by not just citing the generic ORCA reference.

Please note that relegating all ORCA citations to the supporting information does *not* help us.
SI sections are not indexed - citations you put there will not count into any citation statistics
But we need these citations in order to attract the funding resources that allow us to do what we are doing

Therefore, if you are a happy ORCA user, please consider citing a few of the papers listed below in the main body of your paper

In addition to the list printed below, the program has created the file orca.bibtex that contains the list in bibtex format
You can import this file easily into all common literature databanks and citation aid programs


List of essential papers. We consider these as the minimum necessary citations

  1. Neese,F.
     Software update: the ORCA program system, version 5.0
     WIRES Comput. Molec. Sci., 2022 12(1)e1606
     doi.org/10.1002/wcms.1606

List of papers to cite with high priority. The work reported in these papers was absolutely
necessary for this run to complete.
Our perspective: the developers of density functionals and basis sets usually get cited in chemistry papers
Good! But without the algorithms to do something with them, the functionals or basis sets would not do anything.
Hence, in our opinion, the algorithm design and method developments papers are equally worthy of getting cited

  1. Neese,F.; Olbrich,G.
     Efficient use of the resolution of the identity approximation in time-dependent density functional calculations with hybrid density functionals
     Chem. Phys. Lett., 2002 362 170-178
     doi.org/10.1016/s0009-2614(02)01053-9
  2. Neese,F.
     An improvement of the resolution of the identity approximation for the formation of the Coulomb matrix
     J. Comp. Chem., 2003 24(14)1740-1747
     doi.org/10.1002/jcc.10318
  3. Neese,F.; Wennmohs,F.; Hansen,A.; Becker,U.
     Efficient, approximate and parallel Hartree-Fock and hybrid DFT calculations. A 'chain-of-spheres' algorithm for the Hartree-Fock exchange
     Chem. Phys., 2009 356(1-3)98-109
     doi.org/10.1016/j.chemphys.2008.10.036
  4. Petrenko,T.; Kossmann,S.; Neese,F.
     Efficient time-dependent density functional theory approximations for hybrid density functionals: Analytical gradients and parallelization
     J. Chem. Phys., 2011 134 054116
     doi.org/10.1063/1.3533441
  5. Helmich-Paris,B.; de Souza,B.; Neese,F.; Izsák,R.
     An improved chain of spheres for exchange algorithm
     J. Chem. Phys., 2021 155 104109
     doi.org/doi: 10.1063/5.0058766.
  6. Neese,F.
     The SHARK Integral Generation and Digestion System
     J. Comp. Chem., 2022  1-16
     doi.org/10.1002/jcc.26942
  7. Lehtola,S.; Steigemann,C.; Oliveira,M.; Marques,M.
     Recent developments in Libxc - A comprehensive library of functionals for density functional theory
     Software X, 2018 7 
     doi.org/10.1016/j.softx.2017.11.002
  8. Grimme,S.; Antony,J.; Ehrlich,S.; Krieg,H.
     A consistent and accurate ab initio parametrization of density functional dispersion correction (DFT-D) for the 94 elements H-Pu
     J. Chem. Phys., 2010 132 154104-XXXX
     doi.org/10.1063/1.3382344
  9. Grimme,S.; Ehrlich,S.; Goerigk,L.
     Effect of the damping function in dispersion corrected density functional theory
     J. Comput. Chem., 2011 32(7)1456-1465
     doi.org/10.1002/jcc.21759

List of suggested additional citations. These are papers that are important in the 'surrounding' of 
of this run, or papers that preceded the highly important papers. If you like your results we are grateful for a citation.

  1. Izsak,R.; Neese,F.
     An overlap fitted chain of spheres exchange method
     J. Chem. Phys., 2011 135 144105
     doi.org/10.1063/1.3646921
  2. Izsak,R.; Hansen,A.; Neese,F.
     The resolution of identity and chain of spheres approximations for the LPNO-CCSD singles Fock term
     Molec. Phys., 2012 110 2413-2417
     doi.org/10.1080/00268976.2012.687466
  3. Neese,F.
     The ORCA program system
     WIRES Comput. Molec. Sci., 2012 2(1)73-78
     doi.org/10.1002/wcms.81
  4. Izsak,R.; Neese,F.; Klopper,W.
     Robust fitting techniques in the chain of spheres approximation to the Fock exchange: The role of the complementary space
     J. Chem. Phys., 2013 139 
     doi.org/10.1063/1.4819264
  5. Neese,F.
     Software update: the ORCA program system, version 4.0
     WIRES Comput. Molec. Sci., 2018 8(1)1-6
     doi.org/10.1002/wcms.1327
  6. Neese,F.; Wennmohs,F.; Becker,U.; Riplinger,C.
     The ORCA quantum chemistry program package
     J. Chem. Phys., 2020 152 Art. No. L224108
     doi.org/10.1063/5.0004608

List of optional additional citations

  1. Neese,F.
     Approximate second-order SCF convergence for spin unrestricted wavefunctions
     Chem. Phys. Lett., 2000 325(1-3)93-98
     doi.org/10.1016/s0009-2614(00)00662-x

Timings for individual modules:

Sum of individual times          ...      345.821 sec (=   5.764 min)
Startup calculation              ...        6.264 sec (=   0.104 min)   1.8 %
SCF iterations                   ...      166.692 sec (=   2.778 min)  48.2 %
Property integrals               ...        4.279 sec (=   0.071 min)   1.2 %
Property calculations            ...        2.809 sec (=   0.047 min)   0.8 %
CIS module                       ...      165.777 sec (=   2.763 min)  47.9 %
                             ****ORCA TERMINATED NORMALLY****
TOTAL RUN TIME: 0 days 0 hours 5 minutes 48 seconds 58 msec
