1
Properties=species:S:1:pos:R:3 config_type=IsolatedAtom REF_energy=-1483.5761877667198 energy=-1483.5761877667198 free_energy=-1483.5761877667198 dipole="-0.0 1.0583544211276823e-09 5.291772105638412e-10" pbc="F F F"
N        0.00000000       0.00000000       0.00000000
1
Properties=species:S:1:pos:R:3 config_type=IsolatedAtom REF_energy=-1028.9771505969138 energy=-1028.9771505969138 free_energy=-1028.9771505969138 dipole="-4.603841731905418e-08 3.016310100213894e-08 2.69880377387559e-08" pbc="F F F"
C        0.00000000       0.00000000       0.00000000
1
Properties=species:S:1:pos:R:3 config_type=IsolatedAtom REF_energy=-2041.370068087562 energy=-2041.370068087562 free_energy=-2041.370068087562 dipole="2.4871328896500532e-08 1.3758607474659871e-08 -4.233417684510729e-09" pbc="F F F"
O        0.00000000       0.00000000       0.00000000
1
Properties=species:S:1:pos:R:3 config_type=IsolatedAtom REF_energy=-13.568778219076226 energy=-13.568778219076226 free_energy=-13.568778219076226 dipole="-0.0012331030238405477 -0.0019389931429228675 -6.989901774337778e-06" pbc="F F F"
H        0.00000000       0.00000000       0.00000000
