30
Properties=species:S:1:pos:R:3:forces:R:3 energy=-24726.007563737683 free_energy=-24726.007563737683 dipole="-6.208889129266605e-05 0.5481495857190618 1.4363880447479374" pbc="F F F"
O        2.14090087       0.14114828      -1.17926309      -0.11085351       0.11725870       0.13437752
O       -0.48497831       2.47578354      -2.46966865      -0.51994185       0.09994564      -1.90307081
O        0.44903212      -3.70329081       0.45099941       0.06123898       0.47785582       0.07845756
O       -2.41237814      -1.25839569      -1.08921818      -0.13309559      -0.18443765      -0.05899596
N        0.44621578      -1.89303456       1.82793587      -0.16168119      -0.51584136       0.45629672
N       -1.46748779      -0.18074403       0.64196160      -0.05866311      -0.11615471       0.42549172
N        1.11397174      -1.68648824      -0.38460063      -0.24150797      -0.64587258       0.08541458
N       -1.05711835       0.45292043      -1.61819191       0.28876877       0.33562971       0.36959706
C        1.06133547       0.37293556       0.93953984       0.42857193      -0.96597725       0.16771680
C       -0.06826049       2.36286047      -0.32109022      -1.85085778      -0.45965273       0.98479504
C        0.55998528      -0.49968527       2.05417820       0.08232590       0.02035453       0.51646295
C       -0.39856984       0.43170723       1.36209817       0.06122331       0.02000821       0.19769575
C        2.01954195       1.46360421       1.34607101       0.35686562      -0.10521544       0.04835743
C       -0.95320269       3.30220473       0.34954627       0.50388473       0.84786319       0.36478210
C        1.48117961      -0.36856186      -0.30284837       0.19989637       0.28840478      -0.14505545
C       -0.56052837       1.74524073      -1.51563012       1.18307708      -0.09595158      -0.02811395
C        0.63727087      -2.51888846       0.63713994       0.08842441      -0.29412227      -0.27523394
C       -1.67905513      -0.38320662      -0.69575859       0.10478448       0.22985683       0.03072187
H        0.89216911      -0.24141016       3.05974259      -0.11312100      -0.07784171      -0.32325060
H       -0.64306460       1.33044496       1.91647954      -0.03740380      -0.14614780      -0.13004774
H        2.33593635       2.05117076       0.48136550      -0.12173887      -0.05278999       0.26375581
H        1.57029383       2.09751190       2.10699612      -0.01715741       0.12000266      -0.09107635
H        2.90517251       0.98934284       1.79641633      -0.21433075       0.22247530      -0.21119736
H       -1.96739767       2.89844765       0.54938928       0.44713532      -0.16929690      -0.10727802
H       -0.56946639       3.71426230       1.28780356       0.00481167      -0.07942371      -0.10176075
H       -1.06375480       4.12588968      -0.35290956      -0.32564133       0.51999180       0.05658542
H        0.08194453      -2.49429047       2.55686750       0.11738054       0.24521709      -0.26249537
H       -1.97477666      -0.88284150       1.17149984       0.15324996       0.21938700      -0.22340930
H        1.36241328      -2.19027016      -1.22646059      -0.00002243       0.20998583       0.10117529
H       -1.27359159       0.18503347      -2.55676527      -0.16402841      -0.06156764      -0.42430746
30
Properties=species:S:1:pos:R:3:forces:R:3 energy=-24726.38572185291 free_energy=-24726.38572185291 dipole="0.2766068706217944 0.6043391443795653 1.5854885028236883" pbc="F F F"
O        2.21122961       0.31090478      -1.18809542       0.82597359       0.43165187      -0.76842137
O       -0.80686930       2.43441125      -2.61181307      -1.07936831      -0.63549139       0.85448399
O        0.55736117      -3.71187121       0.23570309      -0.30876583      -1.06024063      -0.42128258
O       -2.56468444      -1.14156086      -0.91023204       0.93849545       0.45655619       0.21992235
N        0.81779656      -2.06943087       1.75884544      -0.07740103      -0.31504565       0.53969805
N       -1.34790388      -0.28271442       0.80068007       0.66394031      -0.74052622      -0.61181520
N        1.41260847      -1.70498866      -0.44318630       0.39315512       1.14448398      -0.57787777
N       -0.94600304       0.39408583      -1.51286856      -0.94889623       0.16897649       1.66754429
C        1.27352784       0.25047834       0.98676086       0.59866548       0.80782032      -0.17003998
C       -1.27554057       2.46758049      -0.35651986      -1.29095117       0.53572302       0.03645584
C        0.91052087      -0.69209015       2.04582738      -1.08373467       0.67351898       1.64468619
C       -0.18242797       0.24711141       1.46002743       0.17805498       0.42984004       0.26062112
C        2.14476117       1.42115390       1.37218854      -0.58091702       1.03624745       1.59388936
C       -1.36938322       3.74375274       0.36161187       2.27095143      -0.66561766      -0.43536648
C        1.71419664      -0.31194702      -0.31018326      -1.81099982      -2.31070831       0.40031296
C       -1.09737745       1.79222278      -1.58270572       2.35347860       0.81072926       0.42516225
C        0.86386521      -2.58891362       0.49622982       0.97844301       1.11053572       0.07726259
C       -1.68075367      -0.38330301      -0.55581647      -0.28573386      -0.07355184       0.14983393
H        1.20259992      -0.39678170       3.08804950      -0.11186865      -0.73767384      -1.20432191
H       -0.40784628       1.09587248       2.11980855       0.15143713      -0.32199841      -0.50213730
H        2.17263214       2.17429699       0.58261083      -0.12674128      -0.12293031       0.16080872
H        1.73329638       1.89764012       2.34520617       0.79676503      -0.71202272      -1.60250078
H        3.17548737       1.08769383       1.55010975      -0.33541041       0.07594892       0.02369696
H       -1.89127777       3.76963280       1.30793587      -0.39213246      -0.34546969      -0.02869567
H       -0.32726074       4.11533750       0.54699001      -0.65903692      -0.13866788       0.02509682
H       -1.76951356       4.46174163      -0.33274333      -0.52566047       0.41402127      -0.38671282
H        0.48917660      -2.71095725       2.46885866      -0.02809407       0.26197248      -0.28216065
H       -1.70048122      -1.12404423       1.24758897      -0.19638576       0.37664124       0.03466043
H        1.64115741      -2.07552055      -1.35871758      -0.25053353      -0.14912322       0.30916815
H       -1.09101585      -0.03708864      -2.38306491      -0.06659136      -0.42239255      -1.46592122
30
Properties=species:S:1:pos:R:3:forces:R:3 energy=-24725.89187282246 free_energy=-24725.89187282246 dipole="-0.006280764623891439 0.5416272866242439 1.4200685402555382" pbc="F F F"
O        2.14471586       0.14308317      -1.17733601      -0.04153414       0.11017487       0.00731007
O       -0.47780384       2.48121817      -2.46697187      -0.72302423      -0.55126292      -1.05944535
O        0.44928279      -3.70171275       0.45229594       0.03400999       0.18603507       0.01233302
O       -2.41389170      -1.25968630      -1.08935676      -0.09982279      -0.10119002      -0.07133872
N        0.44553937      -1.89670025       1.82921971      -0.00869985      -0.21325183       0.18572504
N       -1.46895588      -0.17887011       0.64207721      -0.00559955      -0.05442920       0.13882170
N        1.10672220      -1.69029912      -0.38544341      -0.03857365      -0.12331271      -0.01045971
N       -1.05835097       0.45392839      -1.62049102       0.12170199       0.28626658       0.27309097
C        1.05821986       0.37481088       0.93503904       0.62209770      -0.97196947       0.26235231
C       -0.05389627       2.36223473      -0.32564169      -2.27106000      -0.44836039       1.23568188
C        0.56330570      -0.50114911       2.05142831      -0.08267774      -0.03053067       0.33912963
C       -0.39592188       0.43235620       1.35803545      -0.04956179      -0.08669395       0.25897917
C        2.02271677       1.46059656       1.35269079       0.00976517      -0.00749340       0.03972222
C       -0.95827484       3.29378699       0.35596840       0.97918701       1.06224053      -0.27921391
C        1.48272357      -0.36511478      -0.30597352      -0.00706921       0.00076400       0.03996628
C       -0.57604855       1.74097720      -1.50141809       1.72306875       0.65574693      -1.09940729
C        0.63965872      -2.52052815       0.63489020      -0.01027278      -0.16959997      -0.06206402
C       -1.68244223      -0.38076091      -0.69933729       0.06687625       0.05563726       0.19058685
H        0.89029570      -0.23662942       3.05116671      -0.03626552      -0.06158325      -0.16009810
H       -0.64931915       1.32632997       1.91117802       0.00232357      -0.06809537      -0.07665917
H        2.33344830       2.04909400       0.49381042       0.00891345       0.01447723       0.08731443
H        1.56246660       2.10896108       2.09587780      -0.00082470       0.04341708      -0.04409987
H        2.90097083       0.99436729       1.81162748      -0.10431698       0.13398645      -0.15703083
H       -1.98388740       2.92850493       0.52368502       0.35394180      -0.36709181       0.02888703
H       -0.55367443       3.71503482       1.27223694      -0.06567570      -0.00024089       0.14982812
H       -1.03319024       4.10553216      -0.37462138      -0.36318406       0.48998423       0.23713447
H        0.06501803      -2.48835887       2.54935099       0.04239573       0.07271582      -0.07940269
H       -1.97340815      -0.88269675       1.16736556       0.11351786       0.15269709      -0.15354529
H        1.35894332      -2.18238651      -1.22994443       0.00551962       0.08322333       0.03614140
H       -1.27581166       0.20496622      -2.56712636      -0.16135901      -0.08842928      -0.27621956
30
Properties=species:S:1:pos:R:3:forces:R:3 energy=-24726.221859125017 free_energy=-24726.221859125017 dipole="0.11186914924318651 0.6228343689108559 1.57797967876395" pbc="F F F"
O        2.08894376       0.14437625      -1.22300999      -0.03661466       0.39600843       0.31221948
O       -0.60782434       2.47095163      -2.59435100       0.79195392      -0.47125308      -0.01697233
O        0.44349296      -3.70342677       0.40959562       0.06561247       0.55260752       0.40466033
O       -2.40852353      -1.22076637      -1.09888640      -0.08610207      -0.41504593       0.01812096
N        0.46256289      -1.90726789       1.85581262       0.09281015      -0.86130918      -0.43870386
N       -1.43460104      -0.20972626       0.69855489      -0.24451047      -0.23239479      -1.78655662
N        1.12821924      -1.70131061      -0.38230943      -0.02554345       0.60010539       0.40690189
N       -0.98474738       0.45393558      -1.59223118       0.72503714      -0.29305116       0.52446384
C        1.13083509       0.31196651       1.01307740      -0.19504233      -0.13022089      -0.70097413
C       -0.28924135       2.36029790      -0.30610032       0.19954092      -0.50840140      -0.78837988
C        0.57501969      -0.51831504       2.11428991       0.41216634      -0.17635011       0.12239426
C       -0.37524681       0.40842359       1.40024050       0.53805003      -0.41207133       0.01867966
C        2.05583849       1.45798518       1.33062786      -0.05393476      -0.26288174      -0.21269203
C       -0.96286640       3.39386554       0.39750902      -0.37427845       1.22510583      -0.41108041
C        1.49213843      -0.36504489      -0.30886213      -0.13835887      -0.78319041       0.73749837
C       -0.47665195       1.77702633      -1.59643830      -2.34110611       0.21459639       0.71077719
C        0.64450673      -2.52547983       0.62440865      -0.05422578      -0.17505670       0.63962420
C       -1.63216157      -0.40544805      -0.67774711       0.47992332       1.65340274       1.13577199
H        0.88331639      -0.25293724       3.12522556      -0.05835750      -0.21137362      -0.29795678
H       -0.65721716       1.29877395       1.91042353       0.12267347       0.49353347       0.36598121
H        2.18378972       1.98519194       0.38560393       0.49600319       0.13113996       0.30740555
H        1.59781650       2.12605922       2.03948104      -0.14926049       0.26653278       0.30538395
H        3.00102472       1.08781326       1.76610578      -0.36907112       0.22704928      -0.45417107
H       -1.96369362       3.03118932       0.70155481       0.24939518       0.11026402       0.12746744
H       -0.40940579       3.72489748       1.27047627      -0.05589171       0.08278715       0.26196089
H       -1.13060339       4.29094247      -0.25481892       0.13976460      -0.50724476       0.40421609
H        0.21467212      -2.53054873       2.60242864      -0.13881895      -0.03035908      -0.09083180
H       -2.03477644      -0.83454218       1.20636116       0.13421339      -0.15071427       0.19821975
H        1.42626626      -2.18806874      -1.20006818      -0.02051492      -0.22796981      -0.49749097
H       -1.28874666       0.15314432      -2.48060716      -0.09437058      -0.10469361      -1.28589595
30
Properties=species:S:1:pos:R:3:forces:R:3 energy=-24725.902549776987 free_energy=-24725.902549776987 dipole="-0.288058019390993 0.8763270096964856 1.1989765760350817" pbc="F F F"
O        2.41558320       0.46677509      -0.94739766      -1.61042715      -1.93666250       0.36019772
O       -0.97231762       2.42016531      -2.47905412       0.52760036       0.30367269       0.34020385
O        1.00770025      -3.71656569       0.06054985       0.09041749       0.30114165      -0.26401497
O       -2.31699448      -1.54505427      -0.96758977      -0.66422957      -0.67309229      -0.54351082
N        0.93014544      -2.06643926       1.65034274       0.26695047       0.01749831      -1.33540702
N       -1.27260869      -0.51365880       0.75992314      -0.66396368       0.19462215      -3.91572731
N        1.31347035      -1.53056660      -0.60723479       0.07828850      -0.83112602       0.42808899
N       -1.36679626       0.42268749      -1.52417711       0.12889892       0.90396839       0.19320132
C        1.16887419       0.30711849       0.97770494       0.88502370       1.03022125       1.08200543
C       -1.19645706       2.49148422      -0.08867716       0.72965897       0.42361197      -0.29078784
C        0.87330414      -0.69113814       2.06279015      -1.16824070      -0.02087891      -0.68060671
C       -0.26097459       0.19984309       1.40911931       0.38977112      -1.21094670       1.12511086
C        1.93407739       1.63038734       1.33709843      -1.13570126      -2.08632284       1.00470512
C       -1.50873069       3.86764788       0.45906669      -1.06440233      -1.02340367      -1.77766403
C        1.64742437      -0.24912398      -0.27550821       2.36067022       1.83437069      -1.69644645
C       -1.10729153       1.81821292      -1.43432281      -1.59502743       0.38127032       1.00726550
C        1.07454611      -2.54581823       0.33375951      -0.57031019       0.94020819       1.79763625
C       -1.68165030      -0.59567555      -0.61974284       1.08350220       1.19403340       2.27014047
H        1.12701804      -0.58104805       3.11227303       0.18981571       0.44088079      -0.37356623
H       -0.65695641       1.03628035       1.92943406       0.38487124       0.58801416       0.66935826
H        1.68928078       2.33940395       0.59549446      -0.13289536       0.88247486      -0.66516551
H        1.46265705       1.89515674       2.29954715       0.80540644       0.37353168      -0.26664050
H        3.02729004       1.47245838       1.36368076      -0.78207996       0.06334721       0.22819190
H       -1.37682712       3.93126356       1.52060399      -0.04847420      -0.24548629       0.53751781
H       -0.90764656       4.67375348       0.03902253       0.46254370      -0.18785854      -0.44104613
H       -2.54845248       4.17002153       0.17067919       0.59133013      -0.34360202       0.35351863
H        0.48480259      -2.74606425       2.22039900      -0.17764414      -0.38847775       0.49904681
H       -1.86644509      -1.16410904       1.20606749       0.02571266      -0.66469470       1.06646532
H        1.73959405      -1.92735434      -1.41279879       0.25989519       0.11545727      -0.88993152
H       -1.76203621       0.25510861      -2.44331283       0.36380973      -0.39325630       0.14547450
30
Properties=species:S:1:pos:R:3:forces:R:3 energy=-24729.143035330133 free_energy=-24729.143035330133 dipole="-0.03165506905055196 0.7456736654767497 1.3653883500484854" pbc="F F F"
O        3.32614588       0.75521619      -0.26285517       0.31334955       0.21379619      -0.27502665
O       -0.67607535       0.82878436      -2.51192629      -0.07344572       0.05087072       0.24740189
O        0.67445862      -2.82708529      -1.14422365      -0.05795151      -0.22684677      -0.22083068
O       -3.55145275      -1.08340475       0.39401999      -0.23087281      -0.18389631       0.23040228
N        0.21781421      -1.59654340       0.70092620       0.19748915      -0.17250970      -0.32498142
N       -2.00382671       0.35268280       1.25358875      -0.39707839      -0.19694919      -0.27251540
N        2.01238230      -1.05574661      -0.67547095       0.35647130       0.22614561      -0.64059251
N       -1.91965176      -0.31301471      -0.97378339       0.22709870       0.05028229      -0.12112800
C        1.51010905       0.40854811       1.16508043       2.31228319      -1.33998445       0.49188627
C       -0.49626443       1.41810059      -0.21702384      -0.32992077       0.06183722       0.51431314
C        0.33799409      -0.41748130       1.48048160       1.02101936       1.05197759      -0.66986287
C       -0.59776271       0.75393899       1.14558967      -2.68761770       0.51458196      -0.12309415
C        1.96738738       1.47218903       2.08446130       0.01125241      -0.24871485       0.10432990
C       -0.37515237       2.89385557      -0.32847683       0.46229569      -0.54381661      -0.01801546
C        2.35150342       0.09402601       0.03234377      -0.28291388      -0.13609907       0.36993811
C       -0.98106656       0.65085816      -1.34586121      -0.24582248      -0.00700863      -0.03716022
C        0.94036513      -1.88931497      -0.43636261      -0.17224897       0.07603041       0.41879344
C       -2.56452953      -0.40061512       0.25651525       0.01059372       0.06020844      -0.45176917
H        0.26477354      -0.65227964       2.53631983      -0.14928060       0.10220192       0.22492462
H       -0.42520692       1.49640513       1.91326684      -0.09611229       0.16408925      -0.00446272
H        1.82225963       2.46735214       1.68192665      -0.08730525       0.24233437      -0.06955740
H        1.49282206       1.40015350       3.06131381      -0.02246857       0.04520752      -0.04254878
H        3.03742403       1.36711227       2.19716137       0.31074014       0.04701200       0.10832514
H       -1.28303051       3.35250777       0.09112830       0.06730307      -0.01912407      -0.13080164
H        0.46197980       3.25755930       0.26741467      -0.01987716       0.13249505      -0.09447746
H       -0.25114871       3.18071439      -1.37179196      -0.07923290       0.05415216       0.15985402
H       -0.58543561      -2.18348115       0.81980948      -0.12826153      -0.07083139       0.03735747
H       -2.44933614       0.18965104       2.14193018       0.22199859       0.08304488       0.11483115
H        2.55134338      -1.24639302      -1.52184819      -0.34943901       0.07398202       0.52370885
H       -2.30459415      -0.87121904      -1.71538619      -0.10648556      -0.09263927      -0.04549845
30
Properties=species:S:1:pos:R:3:forces:R:3 energy=-24729.33397418134 free_energy=-24729.33397418134 dipole="-0.10438754182574214 0.8133625005153982 1.4001019829411603" pbc="F F F"
O        3.56742517       0.56250219      -0.28262391      -1.42185251      -0.50989269       0.49647457
O       -0.82187818       0.99003835      -2.44915075       0.08194435       0.03899073      -0.84910572
O        0.58883580      -2.77723006      -0.82165347      -0.19440165      -2.57289702      -1.75103142
O       -3.69552467      -1.28064013       0.04874760      -0.49038456       0.05911236       0.61442374
N        0.27015526      -1.38829231       0.85678639       1.61374985       1.48113666       0.06719187
N       -2.14731268      -0.02724741       1.24414908       0.73244387       0.68595386      -1.01005760
N        1.87319186      -0.89444740      -0.78958824      -0.31096690       0.56756862       1.75569670
N       -1.99043423      -0.33427405      -1.04745443      -1.53758221      -1.27890700      -1.30446468
C        1.71012555       0.56109102       1.19098273       0.08765319      -1.29714749      -0.50158595
C       -0.71611772       1.38667391      -0.17392301       1.19675957       1.94607779       0.76571801
C        0.39986810      -0.10112252       1.51013576       0.34894865      -0.12211408      -0.47747116
C       -0.92876556       0.80522396       1.19540126       0.73574938      -1.10491776      -1.26309467
C        2.38798409       1.50043648       2.11274033      -0.92873198      -0.44458778      -1.19157936
C        0.06527837       2.67824066      -0.46538590       0.37456226      -0.74049431       1.20152316
C        2.45755228       0.09803932       0.03807644       1.33475714       0.50760328      -1.21446898
C       -1.15077728       0.69259929      -1.32294017       0.17080929       0.28179688       0.17666685
C        0.92255702      -1.78084324      -0.29119236      -0.42744366       2.15313598       1.07587800
C       -2.72929189      -0.56707676       0.09654508       1.23004847      -0.00254416       0.70339316
H        0.47704611      -0.24384120       2.57795676      -0.56952428      -0.12756532       0.55423572
H       -0.87652742       1.55158087       1.95250156      -0.58657935       0.66171487       0.50889158
H        3.21227051       1.95038702       1.61233075       0.62332504       0.28842008      -0.27682563
H        1.67109193       2.23534705       2.37575191      -0.60375199       1.00014005       0.58609545
H        2.71637023       1.02514648       3.00868631       0.27067455      -0.51359506       0.78059429
H       -0.48898611       3.25106830      -1.19553123      -0.00600037       0.03247837      -0.28923394
H        0.11158183       3.28240915       0.46266107       0.22714278      -0.31173577      -0.52383763
H        1.11527572       2.51260158      -0.87066783      -1.35300048       0.02741133       0.53483104
H       -0.48750233      -1.96935998       1.08885278      -0.81705356      -0.57397338       0.28770425
H       -2.62970263      -0.14417280       2.10109561      -0.39390055      -0.08310686       0.49331465
H        2.39858758      -1.20780352      -1.57892442       0.29146799      -0.06194318      -0.24865958
H       -2.44798879      -0.73624112      -1.86392289       0.32369650      -0.00083807       0.27885368
30
Properties=species:S:1:pos:R:3:forces:R:3 energy=-24728.94090270766 free_energy=-24728.94090270766 dipole="-0.03449105302025364 0.7437641183997087 1.3638688589641736" pbc="F F F"
O        3.32208775       0.75579879      -0.26270047       0.25463176       0.16457830      -0.15798523
O       -0.67707824       0.82904199      -2.51434696       0.01498053       0.03782513      -0.03820127
O        0.67913516      -2.82794181      -1.14815576      -0.02190492      -0.05788733      -0.03811007
O       -3.55026492      -1.08560976       0.39192406      -0.14348141      -0.08444447       0.17647067
N        0.21998374      -1.60432601       0.70148247      -0.02006247       0.06352955       0.02901444
N       -2.00756697       0.35551396       1.25728200       0.17641351      -0.05959596      -0.76249077
N        2.01502559      -1.05407143      -0.67350950      -0.10285183       0.08842137      -0.14454037
N       -1.91856534      -0.31199954      -0.98112330      -0.00963482      -0.11849145       0.09718888
C        1.48233113       0.41843978       1.16638657       3.54522446      -1.39070747       0.12681134
C       -0.48807332       1.42456473      -0.21966119      -0.49500215      -0.52261858       0.50963025
C        0.33435523      -0.41458705       1.48561880       0.98957886       0.20997635      -0.27613595
C       -0.57085098       0.74342458       1.15090213      -3.86176970       1.14387050      -0.36417294
C        1.96423306       1.47105933       2.08543275       0.05634038       0.15910068      -0.08777741
C       -0.37673315       2.89541572      -0.32482919       0.73044229      -0.26950619      -0.12810461
C        2.35165588       0.08941580       0.03456254      -0.55694808       0.16883008       0.56332872
C       -0.97939030       0.64327001      -1.35330866      -0.16952378       0.40062134       0.37061107
C        0.94062615      -1.89309075      -0.42964943      -0.00450170      -0.02055289       0.02645915
C       -2.56581987      -0.39667355       0.25535956       0.05295225       0.01007902      -0.41240167
H        0.26623066      -0.65766289       2.55137926      -0.13328561       0.17613953      -0.13106513
H       -0.41666862       1.50433466       1.90900725      -0.06350604      -0.00441548      -0.02324133
H        1.81133391       2.47269728       1.67438058       0.00753047      -0.02998606       0.06547014
H        1.48886616       1.41495169       3.05926852      -0.04640063       0.00157972       0.07476725
H        3.04116575       1.37229590       2.19584444       0.07518066       0.01019729       0.04781361
H       -1.27482787       3.37261256       0.08149495      -0.08475368      -0.04505895       0.00555750
H        0.46967561       3.27232625       0.25986073      -0.15923509       0.02290886      -0.14766266
H       -0.25776772       3.19009493      -1.36746790      -0.05484084      -0.01275113       0.14128783
H       -0.59659418      -2.17875808       0.81591033      -0.00541873      -0.01728625      -0.00857903
H       -2.45269908       0.19842245       2.13991649       0.09991695       0.01603531       0.36830050
H        2.54616532      -1.24760614      -1.50969314      -0.06074797      -0.01327287       0.09634595
H       -2.31885977      -0.86985012      -1.71865216      -0.01596459      -0.01432533       0.02134452
30
Properties=species:S:1:pos:R:3:forces:R:3 energy=-24729.347878765824 free_energy=-24729.347878765824 dipole="-0.02518866006518214 0.8432647637203237 1.3019962381640475" pbc="F F F"
O        3.38726744       0.77254369      -0.29328047       0.16732064      -0.13704690      -0.63674102
O       -0.69659019       0.83834371      -2.47507700      -0.00140287       0.20256288      -0.01328425
O        0.61069010      -2.87996664      -1.11768992       0.87271465       2.08557778       1.02515635
O       -3.60352022      -1.09098917       0.43527875      -0.61962071      -1.21215691      -0.80439750
N        0.24976613      -1.55124990       0.69195258      -0.60937691       0.33772578       0.16461139
N       -2.08688035       0.25386655       1.26148285       1.77738476       0.49755068      -0.99006765
N        1.99826319      -1.01912801      -0.73019347      -0.07270937      -0.35565019      -0.92892177
N       -1.93182897      -0.33467830      -0.99518266      -0.49401710      -0.71191011       0.43148869
C        1.74404349       0.28221236       1.27825791       0.21697862       0.50149144      -0.63171900
C       -0.60022311       1.46206487      -0.19712096      -0.53050782       0.20374634      -0.08863678
C        0.39720450      -0.27826233       1.38728074      -0.86268400      -0.92213752       1.20678317
C       -0.75234175       0.81643737       1.10401655       0.04025807      -0.66468602       0.68794868
C        2.06275934       1.48124664       2.11507576      -0.84715094      -0.21165622      -0.86173292
C       -0.30069844       2.89328451      -0.32954777       0.72319935      -0.46192370      -0.75803603
C        2.45290516       0.06546621       0.01921377      -0.17868872      -0.27608393       1.10452567
C       -1.03961215       0.67471423      -1.31580016       0.25730803       0.14170782      -0.65531920
C        0.91632033      -1.88893848      -0.43809278       0.18217274      -0.96962561      -1.18676842
C       -2.59319667      -0.47058059       0.23875000      -0.66229677       0.40822010      -0.26821753
H        0.24379621      -0.51182164       2.44996997      -0.12013423       0.05197335      -0.07084595
H       -0.67145951       1.53588105       1.88318490       0.43914997       0.63170212       0.57099126
H        1.70713001       2.33132582       1.49811235       0.33575854      -0.10705366       0.63444907
H        1.49017060       1.43277122       3.03459744       0.00974332       0.17688196       0.14608671
H        3.10230911       1.64330138       2.32491688       0.44287719      -0.12981819      -0.08445308
H       -1.17818081       3.46158258      -0.06628769      -0.62634951       0.33482915      -0.02708274
H        0.45986645       3.24163987       0.34379832       0.39204836       0.04931354       0.36990839
H        0.01446328       3.12687559      -1.34563477      -0.23344081       0.04522027       0.04314208
H       -0.59741477      -2.10763588       0.80935462       0.52994254       0.41282592       0.17246816
H       -2.47000177       0.03888299       2.15411855      -0.11873715      -0.02876311       0.44314846
H        2.43259946      -1.12868642      -1.64763533      -0.25898687      -0.12441555       0.54030100
H       -2.19669063      -0.94126820      -1.76776148      -0.13317302       0.24370113       0.44523968
30