
                                 *****************
                                 * O   R   C   A *
                                 *****************

                                            #,                                       
                                            ###                                      
                                            ####                                     
                                            #####                                    
                                            ######                                   
                                           ########,                                 
                                     ,,################,,,,,                         
                               ,,#################################,,                 
                          ,,##########################################,,             
                       ,#########################################, ''#####,          
                    ,#############################################,,   '####,        
                  ,##################################################,,,,####,       
                ,###########''''           ''''###############################       
              ,#####''   ,,,,##########,,,,          '''####'''          '####       
            ,##' ,,,,###########################,,,                        '##       
           ' ,,###''''                  '''############,,,                           
         ,,##''                                '''############,,,,        ,,,,,,###''
      ,#''                                            '''#######################'''  
     '                                                          ''''####''''         
             ,#######,   #######,   ,#######,      ##                                
            ,#'     '#,  ##    ##  ,#'     '#,    #''#        ,####,   ,####,        
            ##       ##  ##   ,#'  ##            #'  '#       #'       #'  '#        
            ##       ##  #######   ##           ,######,      #####,   #    #        
            '#,     ,#'  ##    ##  '#,     ,#' ,#      #,     #,   #   #,  ,#        
             '#######'   ##     ##  '#######'  #'      '#     '####' # '####'        



                #########################################################
                #                        -***-                          #
                #          Department of theory and spectroscopy        #
                #                                                       #
                #                      Frank Neese                      #
                #                                                       #
                #     Directorship, Architecture, Infrastructure        #
                #                    SHARK, DRIVERS                     #
                #        Core code/Algorithms in most modules           #
                #                                                       #
                #        Max Planck Institute fuer Kohlenforschung      #
                #                Kaiser Wilhelm Platz 1                 #
                #                 D-45470 Muelheim/Ruhr                 #
                #                      Germany                          #
                #                                                       #
                #                  All rights reserved                  #
                #                        -***-                          #
                #########################################################


                         Program Version 6.0.0  -   RELEASE  -


 With contributions from (in alphabetic order):
   Daniel Aravena         : Magnetic Suceptibility
   Michael Atanasov       : Ab Initio Ligand Field Theory (pilot matlab implementation)
   Alexander A. Auer      : GIAO ZORA, VPT2 properties, NMR spectrum
   Ute Becker             : All parallelization in ORCA, NUMFREQ, NUMCALC
   Giovanni Bistoni       : ED, misc. LED, open-shell LED, HFLD
   Martin Brehm           : Molecular dynamics
   Dmytro Bykov           : pre 5.0 version of the SCF Hessian
   Marcos Casanova-Páez   : Triplet and SCS-CIS(D). UHF-(DLPNO)-IP/EA/STEOM-CCSD. UHF-CVS-IP/STEOM-CCSD
   Vijay G. Chilkuri      : MRCI spin determinant printing, contributions to CSF-ICE
   Pauline Colinet        : FMM embedding
   Dipayan Datta          : RHF DLPNO-CCSD density
   Achintya Kumar Dutta   : EOM-CC, STEOM-CC
   Nicolas Foglia         : Exact transition moments, OPA infrastructure, MCD improvements
   Dmitry Ganyushin       : Spin-Orbit,Spin-Spin,Magnetic field MRCI
   Miquel Garcia          : C-PCM and meta-GGA Hessian, CCSD/C-PCM, Gaussian charge scheme
   Tiago L. C. Gouveia    : GS-ROHF, GS-ROCIS
   Yang Guo               : DLPNO-NEVPT2, F12-NEVPT2, CIM, IAO-localization
   Andreas Hansen         : Spin unrestricted coupled pair/coupled cluster methods
   Ingolf Harden          : AUTO-CI MPn and infrastructure 
   Benjamin Helmich-Paris : MC-RPA, TRAH-(SCF,CASSCF), AVAS, COSX integrals, SCF dyn. polar.
   Lee Huntington         : MR-EOM, pCC
   Robert Izsak           : Overlap fitted RIJCOSX, COSX-SCS-MP3, EOM
   Riya Kayal             : Wick's Theorem for AUTO-CI, AUTO-CI UHF-CCSDT
   Emily Kempfer          : AUTO-CI, RHF CISDT and CCSDT
   Christian Kollmar      : KDIIS, OOCD, Brueckner-CCSD(T), CCSD density, CASPT2, CASPT2-K, improved NEVPT2
   Axel Koslowski         : Symmetry handling
   Simone Kossmann        : Meta GGA functionals, TD-DFT gradient, OOMP2, (MP2 Hessian; deprecated post 5.0)
   Lucas Lang             : DCDCAS
   Marvin Lechner         : AUTO-CI (C++ implementation), FIC-MRCC
   Spencer Leger          : CASSCF response
   Dagmar Lenk            : GEPOL surface, SMD, ORCA-2-JSON
   Dimitrios Liakos       : Extrapolation schemes; Compound Job, initial MDCI parallelization
   Dimitrios Manganas     : Further ROCIS development; embedding schemes. LFT, Crystal Embedding
   Dimitrios Pantazis     : SARC Basis sets
   Anastasios Papadopoulos: AUTO-CI, single reference methods and gradients
   Taras Petrenko         : pre 6.0 DFT Hessian and TD-DFT gradient, (ASA, deprecated), ECA, 1-Electron XAS/XES, NRVS
   Peter Pinski           : DLPNO-MP2, DLPNO-MP2 Gradient
   Christoph Reimann      : Effective Core Potentials
   Marius Retegan         : Local ZFS, SOC
   Christoph Riplinger    : Optimizer, TS searches, QM/MM, DLPNO-CCSD(T), (RO)-DLPNO pert. Triples
   Michael Roemelt        : Original ROCIS implementation
   Masaaki Saitow         : Open-shell DLPNO-CCSD energy and density
   Barbara Sandhoefer     : DKH picture change effects
   Kantharuban Sivalingam : CASSCF convergence/infrastructure, NEVPT2 and variants, FIC-MRCI
   Bernardo de Souza      : ESD, SOC TD-DFT
   Georgi Stoychev        : AutoAux, RI-MP2 NMR, DLPNO-MP2 response, X2C
   Van Anh Tran           : RI-MP2 g-tensors
   Willem Van den Heuvel  : Paramagnetic NMR
   Zikuan Wang            : NOTCH, Electric field optimization 
   Frank Wennmohs         : Technical directorship and infrastructure
   Hang Xu                : AUTO-CI-Response properties 


 We gratefully acknowledge several colleagues who have allowed us to
 interface, adapt or use parts of their codes:
   Stefan Grimme, W. Hujo, H. Kruse, P. Pracht,  : VdW corrections, initial TS optimization,
                  C. Bannwarth, S. Ehlert,         DFT functionals, gCP, sTDA/sTD-DF
                  L. Wittmann, M. Mueller
   Ed Valeev, F. Pavosevic, A. Kumar             : LibInt (2-el integral package), F12 methods
   Garnet Chan, S. Sharma, J. Yang, R. Olivares  : DMRG
   Ulf Ekstrom                                   : XCFun DFT Library
   Mihaly Kallay                                 : mrcc  (arbitrary order and MRCC methods)
   Frank Weinhold                                : gennbo (NPA and NBO analysis)
   Simon Mueller                                 : openCOSMO-RS
   Christopher J. Cramer and Donald G. Truhlar   : smd solvation model
   Lars Goerigk                                  : TD-DFT with DH, B97 family of functionals
   V. Asgeirsson, H. Jonsson                     : NEB implementation
   FAccTs GmbH                                   : IRC, NEB, NEB-TS, DLPNO-Multilevel, CI-OPT
                                                   MM, QMMM, 2- and 3-layer-ONIOM, Crystal-QMMM,
                                                   LR-CPCM, SF, NACMEs, symmetry and pop. for TD-DFT,
                                                   nearIR, NL-DFT gradient (VV10), updates on ESD,
                                                   ML-optimized integration grids, MBIS, APM,
                                                   GOAT, DOCKER, SOLVATOR, interface openCOSMO-RS
   S Lehtola, MJT Oliveira, MAL Marques          : LibXC Library
   Liviu Ungur et al                             : ANISO software


 Your calculation uses the libint2 library for the computation of 2-el integrals
 For citations please refer to: http://libint.valeyev.net

 Your ORCA version has been built with support for libXC version: 6.2.2
 For citations please refer to: https://libxc.gitlab.io

 This ORCA versions uses:
   CBLAS   interface :  Fast vector & matrix operations
   LAPACKE interface :  Fast linear algebra routines
   SCALAPACK package :  Parallel linear algebra routines
   Shared memory     :  Shared parallel matrices
   BLAS/LAPACK       :  OpenBLAS 0.3.27  USE64BITINT DYNAMIC_ARCH NO_AFFINITY Zen SINGLE_THREADED
        Core in use  :  Zen
   Copyright (c) 2011-2014, The OpenBLAS Project


Your calculation utilizes the atom-pairwise dispersion correction
with the Becke-Johnson damping scheme (D3BJ)


Warning: RI is on but no J-basis has been assigned. Assigning Def2/J (nothing to worry about!)
================================================================================

----- Orbital basis set information -----
Your calculation utilizes the basis: def2-TZVPPD
   F. Weigend and R. Ahlrichs, Phys. Chem. Chem. Phys. 7, 3297 (2005).
   D. Rappoport and F. Furche, J. Chem. Phys. 133, 134105 (2010)
   D. Rappoport, J. Chem. Phys. 155, 124102 (2021).

----- AuxJ basis set information -----
Your calculation utilizes the auxiliary basis: def2/J
   F. Weigend, Phys. Chem. Chem. Phys. 8, 1057 (2006).

================================================================================
                                        WARNINGS
                       Please study these warnings very carefully!
================================================================================

Using LibXC functional ID 531 : wB97M-V exchange-correlation functional
[ 1]  N. Mardirossian and M. Head-Gordon.,  J. Chem. Phys. 144, 214110 (2016)
Using LibXC functional ID 531 : wB97M-V exchange-correlation functional
[ 1]  N. Mardirossian and M. Head-Gordon.,  J. Chem. Phys. 144, 214110 (2016)

WARNING: B97M-V or wB97M-V functional requested.
  ===> : libXC variant has now been activated.
         Any manually given DFX/HFX/RangeSep scaling parameters are IGNORED!

Your calculation utilizes LibXC
 by S Lehtola, C Steigemann, MJT Oliveira & MAL Marques
Please cite in your paper:
 S Lehtola, C Steigemann, MJT Oliveira & MAL Marques, SoftwareX, 7, (2018), 1.
   


WARNING: your system is open-shell and RHF/RKS was chosen
  ===> : WILL SWITCH to UHF/UKS

INFO   : Checking CIS options ...

WARNING: CIS/ROCIS methods need fully converged wavefunctions
  ===> : Setting SCFConvForced true
         You can overwrite this default with %scf ConvForced false 


================================================================================
                                       INPUT FILE
================================================================================
NAME = orca.inp
|  1> ! Engrad def2-TZVPPD wB97M-D3BJ 
|  2> %pal nprocs 8 end%pal nprocs 64 end 
|  3> %tddft Nroots 2 Iroot 1 
|  4> sf true 
|  5> end 
|  6> *xyz 0 3 
|  7> O   3.38726744 0.77254369 -0.29328047
|  8> O   -0.69659019 0.83834371 -2.475077
|  9> O   0.6106901 -2.87996664 -1.11768992
| 10> O   -3.60352022 -1.09098917 0.43527875
| 11> N   0.24976613 -1.5512499 0.69195258
| 12> N   -2.08688035 0.25386655 1.26148285
| 13> N   1.99826319 -1.01912801 -0.73019347
| 14> N   -1.93182897 -0.3346783 -0.99518266
| 15> C   1.74404349 0.28221236 1.27825791
| 16> C   -0.60022311 1.46206487 -0.19712096
| 17> C   0.3972045 -0.27826233 1.38728074
| 18> C   -0.75234175 0.81643737 1.10401655
| 19> C   2.06275934 1.48124664 2.11507576
| 20> C   -0.30069844 2.89328451 -0.32954777
| 21> C   2.45290516 0.06546621 0.01921377
| 22> C   -1.03961215 0.67471423 -1.31580016
| 23> C   0.91632033 -1.88893848 -0.43809278
| 24> C   -2.59319667 -0.47058059 0.23875
| 25> H   0.24379621 -0.51182164 2.44996997
| 26> H   -0.67145951 1.53588105 1.8831849
| 27> H   1.70713001 2.33132582 1.49811235
| 28> H   1.4901706 1.43277122 3.03459744
| 29> H   3.10230911 1.64330138 2.32491688
| 30> H   -1.17818081 3.46158258 -0.06628769
| 31> H   0.45986645 3.24163987 0.34379832
| 32> H   0.01446328 3.12687559 -1.34563477
| 33> H   -0.59741477 -2.10763588 0.80935462
| 34> H   -2.47000177 0.03888299 2.15411855
| 35> H   2.43259946 -1.12868642 -1.64763533
| 36> H   -2.19669063 -0.9412682 -1.76776148
| 37> *
| 38> 
| 39>                          ****END OF INPUT****
================================================================================

                     *******************************
                     * Energy+Gradient Calculation *
                     *******************************

---------------------------------
CARTESIAN COORDINATES (ANGSTROEM)
---------------------------------
  O      3.387267    0.772544   -0.293280
  O     -0.696590    0.838344   -2.475077
  O      0.610690   -2.879967   -1.117690
  O     -3.603520   -1.090989    0.435279
  N      0.249766   -1.551250    0.691953
  N     -2.086880    0.253867    1.261483
  N      1.998263   -1.019128   -0.730193
  N     -1.931829   -0.334678   -0.995183
  C      1.744043    0.282212    1.278258
  C     -0.600223    1.462065   -0.197121
  C      0.397205   -0.278262    1.387281
  C     -0.752342    0.816437    1.104017
  C      2.062759    1.481247    2.115076
  C     -0.300698    2.893285   -0.329548
  C      2.452905    0.065466    0.019214
  C     -1.039612    0.674714   -1.315800
  C      0.916320   -1.888938   -0.438093
  C     -2.593197   -0.470581    0.238750
  H      0.243796   -0.511822    2.449970
  H     -0.671460    1.535881    1.883185
  H      1.707130    2.331326    1.498112
  H      1.490171    1.432771    3.034597
  H      3.102309    1.643301    2.324917
  H     -1.178181    3.461583   -0.066288
  H      0.459866    3.241640    0.343798
  H      0.014463    3.126876   -1.345635
  H     -0.597415   -2.107636    0.809355
  H     -2.470002    0.038883    2.154119
  H      2.432599   -1.128686   -1.647635
  H     -2.196691   -0.941268   -1.767761

----------------------------
CARTESIAN COORDINATES (A.U.)
----------------------------
  NO LB      ZA    FRAG     MASS         X           Y           Z
   0 O     8.0000    0    15.999    6.401008    1.459896   -0.554220
   1 O     8.0000    0    15.999   -1.316365    1.584240   -4.677218
   2 O     8.0000    0    15.999    1.154037   -5.442348   -2.112128
   3 O     8.0000    0    15.999   -6.809666   -2.061671    0.822558
   4 N     7.0000    0    14.007    0.471990   -2.931437    1.307601
   5 N     7.0000    0    14.007   -3.943632    0.479738    2.383857
   6 N     7.0000    0    14.007    3.776170   -1.925873   -1.379866
   7 N     7.0000    0    14.007   -3.650628   -0.632450   -1.880623
   8 C     6.0000    0    12.011    3.295765    0.533304    2.415557
   9 C     6.0000    0    12.011   -1.134257    2.762902   -0.372505
  10 C     6.0000    0    12.011    0.750608   -0.525840    2.621581
  11 C     6.0000    0    12.011   -1.421720    1.542843    2.086289
  12 C     6.0000    0    12.011    3.898050    2.799150    3.996914
  13 C     6.0000    0    12.011   -0.568238    5.467515   -0.622755
  14 C     6.0000    0    12.011    4.635319    0.123713    0.036309
  15 C     6.0000    0    12.011   -1.964582    1.275025   -2.486502
  16 C     6.0000    0    12.011    1.731594   -3.569576   -0.827875
  17 C     6.0000    0    12.011   -4.900432   -0.889268    0.451172
  18 H     1.0000    0     1.008    0.460708   -0.967203    4.629772
  19 H     1.0000    0     1.008   -1.268875    2.902395    3.558704
  20 H     1.0000    0     1.008    3.226008    4.405567    2.831022
  21 H     1.0000    0     1.008    2.816014    2.707545    5.734558
  22 H     1.0000    0     1.008    5.862515    3.105390    4.393456
  23 H     1.0000    0     1.008   -2.226439    6.541443   -0.125266
  24 H     1.0000    0     1.008    0.869022    6.125812    0.649685
  25 H     1.0000    0     1.008    0.027332    5.908939   -2.542881
  26 H     1.0000    0     1.008   -1.128950   -3.982855    1.529459
  27 H     1.0000    0     1.008   -4.667627    0.073478    4.070694
  28 H     1.0000    0     1.008    4.596947   -2.132908   -3.113580
  29 H     1.0000    0     1.008   -4.151144   -1.778739   -3.340585

--------------------------------
INTERNAL COORDINATES (ANGSTROEM)
--------------------------------
 O      0   0   0     0.000000000000     0.00000000     0.00000000
 O      1   0   0     4.630600272434     0.00000000     0.00000000
 O      2   1   0     4.168610475985    63.72557111     0.00000000
 O      2   1   3     4.543428017777   104.85764541    54.74977299
 N      3   2   1     2.273886598994    71.82914988    64.65248226
 N      4   2   1     2.188937326135    62.45664653    39.46841208
 N      1   2   3     2.308747118389    52.50229414     0.49564009
 N      2   1   3     2.256520050238    99.57749116    49.07366321
 C      1   2   3     2.326014325589    72.43976757   291.98517752
 C      2   1   3     2.363767843870    60.90430441    99.10850543
 C      5   3   2     1.457983770970   150.88980784   313.69793480
 C      6   4   2     1.456802951000   146.21959764   331.92481720
 C      9   1   2     1.496504965490    93.35064435   241.26688510
 C     10   2   1     1.468210320719   100.28908095    87.55250905
 C      1   2   3     1.212701151580    56.64600788   323.97393455
 C      2   1   3     1.219984206262    78.36604972    73.35226314
 C      3   2   1     1.239918918357    62.79614089    33.28772486
 C      4   2   1     1.201783687441    30.47517384    27.18829419
 H     11   5   3     1.098814112708   105.16073372   200.73820230
 H     12   6   4     1.063599766398   104.57766771   174.44305747
 H     13   9   1     1.108941243666   103.57927641    70.45400079
 H     13   9   1     1.084309850324   109.02106442   187.17741126
 H     13   9   1     1.072827459896   115.89791171   312.76498146
 H     14  10   2     1.078074151322   109.01328056   107.71477424
 H     14  10   2     1.073873998968   113.83785517   224.07771814
 H     14  10   2     1.089185243188   110.62401559   346.01030300
 H      5   3   2     1.020325475063    84.53265851   104.30964392
 H      6   4   2     0.994886147480    86.50707047   181.52302415
 H      7   1   2     1.020955732204    89.85026724    86.51169898
 H      8   2   1     1.017340178521    87.38783643   233.45611629

---------------------------
INTERNAL COORDINATES (A.U.)
---------------------------
 O      0   0   0     0.000000000000     0.00000000     0.00000000
 O      1   0   0     8.750566350560     0.00000000     0.00000000
 O      2   1   0     7.877532158606    63.72557111     0.00000000
 O      2   1   3     8.585834662784   104.85764541    54.74977299
 N      3   2   1     4.297022931692    71.82914988    64.65248226
 N      4   2   1     4.136492070713    62.45664653    39.46841208
 N      1   2   3     4.362899766234    52.50229414     0.49564009
 N      2   1   3     4.264204910651    99.57749116    49.07366321
 C      1   2   3     4.395530058941    72.43976757   291.98517752
 C      2   1   3     4.466873869083    60.90430441    99.10850543
 C      5   3   2     2.755190034835   150.88980784   313.69793480
 C      6   4   2     2.752958608478   146.21959764   331.92481720
 C      9   1   2     2.827984542829    93.35064435   241.26688510
 C     10   2   1     2.774515413156   100.28908095    87.55250905
 C      1   2   3     2.291673058777    56.64600788   323.97393455
 C      2   1   3     2.305436037544    78.36604972    73.35226314
 C      3   2   1     2.343107183962    62.79614089    33.28772486
 C      4   2   1     2.271042041477    30.47517384    27.18829419
 H     11   5   3     2.076457745106   105.16073372   200.73820230
 H     12   6   4     2.009912274594   104.57766771   174.44305747
 H     13   9   1     2.095595249140   103.57927641    70.45400079
 H     13   9   1     2.049048661425   109.02106442   187.17741126
 H     13   9   1     2.027350088153   115.89791171   312.76498146
 H     14  10   2     2.037264898058   109.01328056   107.71477424
 H     14  10   2     2.029327760389   113.83785517   224.07771814
 H     14  10   2     2.058261818733   110.62401559   346.01030300
 H      5   3   2     1.928135715331    84.53265851   104.30964392
 H      6   4   2     1.880062353169    86.50707047   181.52302415
 H      7   1   2     1.929326728722    89.85026724    86.51169898
 H      8   2   1     1.922494322439    87.38783643   233.45611629

---------------------
BASIS SET INFORMATION
---------------------
There are 4 groups of distinct atoms

 Group   1 Type O   : 12s7p3d1f contracted to 6s4p3d1f pattern {621111/4111/111/1}
 Group   2 Type N   : 12s6p3d1f contracted to 6s3p3d1f pattern {621111/411/111/1}
 Group   3 Type C   : 12s6p3d1f contracted to 6s3p3d1f pattern {621111/411/111/1}
 Group   4 Type H   : 5s3p1d contracted to 3s3p1d pattern {311/111/1}

Atom   0O    basis set group =>   1
Atom   1O    basis set group =>   1
Atom   2O    basis set group =>   1
Atom   3O    basis set group =>   1
Atom   4N    basis set group =>   2
Atom   5N    basis set group =>   2
Atom   6N    basis set group =>   2
Atom   7N    basis set group =>   2
Atom   8C    basis set group =>   3
Atom   9C    basis set group =>   3
Atom  10C    basis set group =>   3
Atom  11C    basis set group =>   3
Atom  12C    basis set group =>   3
Atom  13C    basis set group =>   3
Atom  14C    basis set group =>   3
Atom  15C    basis set group =>   3
Atom  16C    basis set group =>   3
Atom  17C    basis set group =>   3
Atom  18H    basis set group =>   4
Atom  19H    basis set group =>   4
Atom  20H    basis set group =>   4
Atom  21H    basis set group =>   4
Atom  22H    basis set group =>   4
Atom  23H    basis set group =>   4
Atom  24H    basis set group =>   4
Atom  25H    basis set group =>   4
Atom  26H    basis set group =>   4
Atom  27H    basis set group =>   4
Atom  28H    basis set group =>   4
Atom  29H    basis set group =>   4
---------------------------------
AUXILIARY/J BASIS SET INFORMATION
---------------------------------
There are 4 groups of distinct atoms

 Group   1 Type O   : 12s5p4d2f1g contracted to 6s4p3d1f1g pattern {711111/2111/211/2/1}
 Group   2 Type N   : 12s5p4d2f1g contracted to 6s4p3d1f1g pattern {711111/2111/211/2/1}
 Group   3 Type C   : 12s5p4d2f1g contracted to 6s4p3d1f1g pattern {711111/2111/211/2/1}
 Group   4 Type H   : 5s2p1d contracted to 3s1p1d pattern {311/2/1}

Atom   0O    basis set group =>   1
Atom   1O    basis set group =>   1
Atom   2O    basis set group =>   1
Atom   3O    basis set group =>   1
Atom   4N    basis set group =>   2
Atom   5N    basis set group =>   2
Atom   6N    basis set group =>   2
Atom   7N    basis set group =>   2
Atom   8C    basis set group =>   3
Atom   9C    basis set group =>   3
Atom  10C    basis set group =>   3
Atom  11C    basis set group =>   3
Atom  12C    basis set group =>   3
Atom  13C    basis set group =>   3
Atom  14C    basis set group =>   3
Atom  15C    basis set group =>   3
Atom  16C    basis set group =>   3
Atom  17C    basis set group =>   3
Atom  18H    basis set group =>   4
Atom  19H    basis set group =>   4
Atom  20H    basis set group =>   4
Atom  21H    basis set group =>   4
Atom  22H    basis set group =>   4
Atom  23H    basis set group =>   4
Atom  24H    basis set group =>   4
Atom  25H    basis set group =>   4
Atom  26H    basis set group =>   4
Atom  27H    basis set group =>   4
Atom  28H    basis set group =>   4
Atom  29H    basis set group =>   4
[1739888259.909558] [ohm:146843:0]        ib_iface.c:1059 UCX  ERROR ibv_create_cq(cqe=256) failed: Connection timed out
[1739888259.916153] [ohm:146852:0]        ib_iface.c:1059 UCX  ERROR ibv_create_cq(cqe=256) failed: Connection timed out
[1739888259.916866] [ohm:146836:0]        ib_iface.c:1059 UCX  ERROR ibv_create_cq(cqe=256) failed: Connection timed out
[1739888259.925811] [ohm:146830:0]        ib_iface.c:1059 UCX  ERROR ibv_create_cq(cqe=256) failed: Connection timed out
[1739888259.928954] [ohm:146832:0]        ib_iface.c:1059 UCX  ERROR ibv_create_cq(cqe=256) failed: Connection timed out
[1739888259.947789] [ohm:146884:0]        ib_iface.c:1059 UCX  ERROR ibv_create_cq(cqe=256) failed: Connection timed out
[1739888259.948603] [ohm:146898:0]        ib_iface.c:1059 UCX  ERROR ibv_create_cq(cqe=256) failed: Connection timed out
[1739888259.956691] [ohm:146856:0]        ib_iface.c:1059 UCX  ERROR ibv_create_cq(cqe=256) failed: Connection timed out
[1739888259.956978] [ohm:146833:0]        ib_iface.c:1059 UCX  ERROR ibv_create_cq(cqe=256) failed: Connection timed out
[1739888259.957137] [ohm:146834:0]        ib_iface.c:1059 UCX  ERROR ibv_create_cq(cqe=256) failed: Connection timed out
[1739888259.958195] [ohm:146851:0]        ib_iface.c:1059 UCX  ERROR ibv_create_cq(cqe=256) failed: Connection timed out
[1739888259.960705] [ohm:146927:0]        ib_iface.c:1059 UCX  ERROR ibv_create_cq(cqe=256) failed: Connection timed out
[1739888259.961454] [ohm:146870:0]        ib_iface.c:1059 UCX  ERROR ibv_create_cq(cqe=256) failed: Connection timed out
[1739888259.982200] [ohm:146916:0]        ib_iface.c:1059 UCX  ERROR ibv_create_cq(cqe=256) failed: Connection timed out
[1739888260.045187] [ohm:146878:0]        ib_iface.c:1059 UCX  ERROR ibv_create_cq(cqe=256) failed: Connection timed out
[1739888260.050033] [ohm:146887:0]        ib_iface.c:1059 UCX  ERROR ibv_create_cq(cqe=256) failed: Connection timed out
[1739888260.051661] [ohm:146932:0]        ib_iface.c:1059 UCX  ERROR ibv_create_cq(cqe=256) failed: Connection timed out
[1739888260.054739] [ohm:146949:0]        ib_iface.c:1059 UCX  ERROR ibv_create_cq(cqe=256) failed: Connection timed out
[1739888260.057282] [ohm:146855:0]        ib_iface.c:1059 UCX  ERROR ibv_create_cq(cqe=256) failed: Connection timed out
[1739888260.057291] [ohm:146919:0]        ib_iface.c:1059 UCX  ERROR ibv_create_cq(cqe=256) failed: Connection timed out
[1739888260.076450] [ohm:146913:0]        ib_iface.c:1059 UCX  ERROR ibv_create_cq(cqe=256) failed: Connection timed out
[1739888260.081414] [ohm:146894:0]        ib_iface.c:1059 UCX  ERROR ibv_create_cq(cqe=256) failed: Connection timed out
[1739888260.091931] [ohm:146935:0]        ib_iface.c:1059 UCX  ERROR ibv_create_cq(cqe=256) failed: Connection timed out
[1739888260.091925] [ohm:146968:0]        ib_iface.c:1059 UCX  ERROR ibv_create_cq(cqe=256) failed: Connection timed out
[1739888260.097106] [ohm:146876:0]        ib_iface.c:1059 UCX  ERROR ibv_create_cq(cqe=256) failed: Connection timed out
[1739888260.101430] [ohm:146849:0]        ib_iface.c:1059 UCX  ERROR ibv_create_cq(cqe=256) failed: Connection timed out
[1739888260.103882] [ohm:146958:0]        ib_iface.c:1059 UCX  ERROR ibv_create_cq(cqe=256) failed: Connection timed out
[1739888260.107317] [ohm:146909:0]        ib_iface.c:1059 UCX  ERROR ibv_create_cq(cqe=256) failed: Connection timed out
[1739888260.108170] [ohm:146848:0]        ib_iface.c:1059 UCX  ERROR ibv_create_cq(cqe=256) failed: Connection timed out
[1739888260.116382] [ohm:146950:0]        ib_iface.c:1059 UCX  ERROR ibv_create_cq(cqe=256) failed: Connection timed out
[1739888260.122629] [ohm:146973:0]        ib_iface.c:1059 UCX  ERROR ibv_create_cq(cqe=256) failed: Connection timed out
[1739888260.123358] [ohm:146966:0]        ib_iface.c:1059 UCX  ERROR ibv_create_cq(cqe=256) failed: Connection timed out
[1739888260.124529] [ohm:146922:0]        ib_iface.c:1059 UCX  ERROR ibv_create_cq(cqe=256) failed: Connection timed out
[1739888260.124693] [ohm:146944:0]        ib_iface.c:1059 UCX  ERROR ibv_create_cq(cqe=256) failed: Connection timed out
[1739888260.129585] [ohm:146880:0]        ib_iface.c:1059 UCX  ERROR ibv_create_cq(cqe=256) failed: Connection timed out
[1739888260.132130] [ohm:146842:0]        ib_iface.c:1059 UCX  ERROR ibv_create_cq(cqe=256) failed: Connection timed out
[1739888260.148954] [ohm:146985:0]        ib_iface.c:1059 UCX  ERROR ibv_create_cq(cqe=256) failed: Connection timed out
[1739888260.149218] [ohm:146846:0]        ib_iface.c:1059 UCX  ERROR ibv_create_cq(cqe=256) failed: Connection timed out
[1739888260.158917] [ohm:146850:0]        ib_iface.c:1059 UCX  ERROR ibv_create_cq(cqe=256) failed: Connection timed out
[1739888260.161841] [ohm:146939:0]        ib_iface.c:1059 UCX  ERROR ibv_create_cq(cqe=256) failed: Connection timed out
[1739888260.165081] [ohm:146854:0]        ib_iface.c:1059 UCX  ERROR ibv_create_cq(cqe=256) failed: Connection timed out
[1739888260.170621] [ohm:146906:0]        ib_iface.c:1059 UCX  ERROR ibv_create_cq(cqe=256) failed: Connection timed out
[1739888260.170766] [ohm:146889:0]        ib_iface.c:1059 UCX  ERROR ibv_create_cq(cqe=256) failed: Connection timed out
[1739888260.174602] [ohm:146853:0]        ib_iface.c:1059 UCX  ERROR ibv_create_cq(cqe=256) failed: Connection timed out
[1739888260.180026] [ohm:146845:0]        ib_iface.c:1059 UCX  ERROR ibv_create_cq(cqe=256) failed: Connection timed out
[1739888260.185219] [ohm:146980:0]        ib_iface.c:1059 UCX  ERROR ibv_create_cq(cqe=256) failed: Connection timed out
[1739888260.187056] [ohm:146952:0]        ib_iface.c:1059 UCX  ERROR ibv_create_cq(cqe=256) failed: Connection timed out
[1739888260.187041] [ohm:146837:0]        ib_iface.c:1059 UCX  ERROR ibv_create_cq(cqe=256) failed: Connection timed out
[1739888260.189176] [ohm:146869:0]        ib_iface.c:1059 UCX  ERROR ibv_create_cq(cqe=256) failed: Connection timed out
[1739888260.192380] [ohm:146841:0]        ib_iface.c:1059 UCX  ERROR ibv_create_cq(cqe=256) failed: Connection timed out
[1739888260.192976] [ohm:146862:0]        ib_iface.c:1059 UCX  ERROR ibv_create_cq(cqe=256) failed: Connection timed out
[1739888260.199059] [ohm:146838:0]        ib_iface.c:1059 UCX  ERROR ibv_create_cq(cqe=256) failed: Connection timed out
[1739888260.206981] [ohm:146860:0]        ib_iface.c:1059 UCX  ERROR ibv_create_cq(cqe=256) failed: Connection timed out
[1739888260.209144] [ohm:146840:0]        ib_iface.c:1059 UCX  ERROR ibv_create_cq(cqe=256) failed: Connection timed out
[1739888260.212153] [ohm:146844:0]        ib_iface.c:1059 UCX  ERROR ibv_create_cq(cqe=256) failed: Connection timed out
[1739888260.212172] [ohm:146901:0]        ib_iface.c:1059 UCX  ERROR ibv_create_cq(cqe=256) failed: Connection timed out
[1739888260.212609] [ohm:146959:0]        ib_iface.c:1059 UCX  ERROR ibv_create_cq(cqe=256) failed: Connection timed out
[1739888260.214914] [ohm:146924:0]        ib_iface.c:1059 UCX  ERROR ibv_create_cq(cqe=256) failed: Connection timed out
[1739888260.215418] [ohm:146882:0]        ib_iface.c:1059 UCX  ERROR ibv_create_cq(cqe=256) failed: Connection timed out
[1739888260.215836] [ohm:146831:0]        ib_iface.c:1059 UCX  ERROR ibv_create_cq(cqe=256) failed: Connection timed out
[1739888260.216442] [ohm:146839:0]        ib_iface.c:1059 UCX  ERROR ibv_create_cq(cqe=256) failed: Connection timed out
[1739888260.216968] [ohm:146847:0]        ib_iface.c:1059 UCX  ERROR ibv_create_cq(cqe=256) failed: Connection timed out
[1739888260.217207] [ohm:146945:0]        ib_iface.c:1059 UCX  ERROR ibv_create_cq(cqe=256) failed: Connection timed out
[1739888260.217821] [ohm:146835:0]        ib_iface.c:1059 UCX  ERROR ibv_create_cq(cqe=256) failed: Connection timed out


           ************************************************************
           *        Program running with 64 parallel MPI-processes    *
           *              working on a common directory               *
           ************************************************************
------------------------------------------------------------------------------
                             ORCA STARTUP CALCULATIONS
                           -- RI-GTO INTEGRALS CHOSEN --
------------------------------------------------------------------------------
------------------------------------------------------------------------------
                   ___                                                        
                  /   \      - P O W E R E D   B Y -                         
                 /     \                                                     
                 |  |  |   _    _      __       _____    __    __             
                 |  |  |  | |  | |    /  \     |  _  \  |  |  /  |          
                  \  \/   | |  | |   /    \    | | | |  |  | /  /          
                 / \  \   | |__| |  /  /\  \   | |_| |  |  |/  /          
                |  |  |   |  __  | /  /__\  \  |    /   |      \           
                |  |  |   | |  | | |   __   |  |    \   |  |\   \          
                \     /   | |  | | |  |  |  |  | |\  \  |  | \   \       
                 \___/    |_|  |_| |__|  |__|  |_| \__\ |__|  \__/        
                                                                              
                      - O R C A' S   B I G   F R I E N D -                    
                                      &                                       
                       - I N T E G R A L  F E E D E R -                       
                                                                              
 v1 FN, 2020, v2 2021, v3 2022-2024                                           
------------------------------------------------------------------------------


----------------------
SHARK INTEGRAL PACKAGE
----------------------

Number of atoms                             ...     30
Number of basis functions                   ...    882
Number of shells                            ...    322
Maximum angular momentum                    ...      3
Integral batch strategy                     ... SHARK/LIBINT Hybrid
RI-J (if used) integral strategy            ... SPLIT-RIJ (Revised 2003 algorithm where possible)
Printlevel                                  ...      1
Contraction scheme used                     ... SEGMENTED contraction
Prescreening option                         ... SCHWARTZ
   Thresh                                   ... 2.500e-11
   Tcut                                     ... 2.500e-12
   Tpresel                                  ... 2.500e-12 
Coulomb Range Separation                    ... NOT USED
Exchange Range Separation                   ... Long Range
   Mu parameter                             ... 3.000e-01
   Scaling (regular/separated)              ... 1.500e-01 8.500e-01
Multipole approximations                    ... NOT USED
Finite Nucleus Model                        ... NOT USED
CABS basis                                  ... NOT available
Auxiliary Coulomb fitting basis             ... AVAILABLE
   # of basis functions in Aux-J            ...   1014
   # of shells in Aux-J                     ...    330
   Maximum angular momentum in Aux-J        ...      4
Auxiliary J/K fitting basis                 ... NOT available
Auxiliary Correlation fitting basis         ... NOT available
Auxiliary 'external' fitting basis          ... NOT available

Checking pre-screening integrals            ... done (  0.0 sec) Dimension = 322
Check shell pair data                       ... done (  0.0 sec)
Shell pair information
Shell pair cut-off parameter TPreSel        ...   2.5e-12
Total number of shell pairs                 ...     52003
Shell pairs after pre-screening             ...     45151
Total number of primitive shell pairs       ...    129718
Primitive shell pairs kept                  ...     84391
          la=0 lb=0:   8748 shell pairs
          la=1 lb=0:  11946 shell pairs
          la=1 lb=1:   4120 shell pairs
          la=2 lb=0:   8109 shell pairs
          la=2 lb=1:   5604 shell pairs
          la=2 lb=2:   1936 shell pairs
          la=3 lb=0:   2079 shell pairs
          la=3 lb=1:   1473 shell pairs
          la=3 lb=2:    991 shell pairs
          la=3 lb=3:    145 shell pairs

Calculating one electron integrals          ... done (  0.2 sec)
Calculating RI/J V-Matrix + Cholesky decomp.... done (  0.1 sec)
Calculating Nuclear repulsion               ... done (  0.0 sec) ENN=   1447.172340262556 Eh

Diagonalization of the overlap matrix:
Smallest eigenvalue                        ... 6.122e-07
Time for diagonalization                   ...    0.124 sec
Threshold for overlap eigenvalues          ... 1.000e-07
Number of eigenvalues below threshold      ... 0

IMPORTANT:
Smallest eigenvalue of S below the DiffSThresh (1.000e-06) while
Thresh>1e-12 and/or TCut>1e-13! In order to avoid SCF convergence issues,
Thresh will be set to at least 1e-12 and TCut to at least 1e-13.
This can be turned off by adding %SCF DiffSThresh -1 END to the input.

Time for construction of square roots      ...    0.126 sec
Total time needed                          ...    0.265 sec

-------------------
DFT GRID GENERATION
-------------------

General Integration Accuracy     IntAcc      ... 4.388
Radial Grid Type                 RadialGrid  ... OptM3 with GC (2021)
Angular Grid (max. ang.)         AngularGrid ... 4 (Lebedev-302)
Angular grid pruning method      GridPruning ... 4 (adaptive)
Weight generation scheme         WeightScheme... mBecke (2022)
Basis function cutoff            BFCut       ... 1.0000e-11
Integration weight cutoff        WCut        ... 1.0000e-14
Partially contracted basis set               ... off
Rotationally invariant grid construction     ... off
Angular grids for H and He will be reduced by one unit
Diffuse basis detected: some atoms will have their outermost
                        angular grid increased by 1.

Total number of grid points                  ...   151817
Total number of batches                      ...     2388
Average number of points per batch           ...       63
Average number of grid points per atom       ...     5061

--------------------
COSX GRID GENERATION
--------------------

GRIDX 1
-------
General Integration Accuracy     IntAcc      ... 3.816
Radial Grid Type                 RadialGrid  ... OptM3 with GC (2021)
Angular Grid (max. ang.)         AngularGrid ... 1 (Lebedev-50)
Angular grid pruning method      GridPruning ... 4 (adaptive)
Weight generation scheme         WeightScheme... mBecke (2022)
Basis function cutoff            BFCut       ... 1.0000e-11
Integration weight cutoff        WCut        ... 1.0000e-14
Partially contracted basis set               ... on
Rotationally invariant grid construction     ... off
Angular grids for H and He will be reduced by one unit
Diffuse basis detected: some atoms will have their outermost
                        angular grid increased by 1.

Total number of grid points                  ...    19045
Total number of batches                      ...      164
Average number of points per batch           ...      116
Average number of grid points per atom       ...      635
UseSFitting                                  ... on

GRIDX 2
-------
General Integration Accuracy     IntAcc      ... 4.020
Radial Grid Type                 RadialGrid  ... OptM3 with GC (2021)
Angular Grid (max. ang.)         AngularGrid ... 2 (Lebedev-110)
Angular grid pruning method      GridPruning ... 4 (adaptive)
Weight generation scheme         WeightScheme... mBecke (2022)
Basis function cutoff            BFCut       ... 1.0000e-11
Integration weight cutoff        WCut        ... 1.0000e-14
Partially contracted basis set               ... on
Rotationally invariant grid construction     ... off
Angular grids for H and He will be reduced by one unit
Diffuse basis detected: some atoms will have their outermost
                        angular grid increased by 1.

Total number of grid points                  ...    45839
Total number of batches                      ...      374
Average number of points per batch           ...      122
Average number of grid points per atom       ...     1528
UseSFitting                                  ... on

GRIDX 3
-------
General Integration Accuracy     IntAcc      ... 4.338
Radial Grid Type                 RadialGrid  ... OptM3 with GC (2021)
Angular Grid (max. ang.)         AngularGrid ... 3 (Lebedev-194)
Angular grid pruning method      GridPruning ... 4 (adaptive)
Weight generation scheme         WeightScheme... mBecke (2022)
Basis function cutoff            BFCut       ... 1.0000e-11
Integration weight cutoff        WCut        ... 1.0000e-14
Partially contracted basis set               ... on
Rotationally invariant grid construction     ... off
Angular grids for H and He will be reduced by one unit
Diffuse basis detected: some atoms will have their outermost
                        angular grid increased by 1.

Total number of grid points                  ...   100825
Total number of batches                      ...      805
Average number of points per batch           ...      125
Average number of grid points per atom       ...     3361
UseSFitting                                  ... on
Initializing property integral containers    ... done (  0.0 sec)

SHARK setup successfully completed in   4.2 seconds

Maximum memory used throughout the entire STARTUP-calculation: 80.2 MB
[1739888266.359226] [ohm:147200:0]        ib_iface.c:1059 UCX  ERROR ibv_create_cq(cqe=256) failed: Connection timed out
[1739888266.364853] [ohm:147188:0]        ib_iface.c:1059 UCX  ERROR ibv_create_cq(cqe=256) failed: Connection timed out
[1739888266.365775] [ohm:147210:0]        ib_iface.c:1059 UCX  ERROR ibv_create_cq(cqe=256) failed: Connection timed out
[1739888266.367067] [ohm:147194:0]        ib_iface.c:1059 UCX  ERROR ibv_create_cq(cqe=256) failed: Connection timed out
[1739888266.373780] [ohm:147205:0]        ib_iface.c:1059 UCX  ERROR ibv_create_cq(cqe=256) failed: Connection timed out
[1739888266.382691] [ohm:147190:0]        ib_iface.c:1059 UCX  ERROR ibv_create_cq(cqe=256) failed: Connection timed out
[1739888266.383715] [ohm:147206:0]        ib_iface.c:1059 UCX  ERROR ibv_create_cq(cqe=256) failed: Connection timed out
[1739888266.396704] [ohm:147195:0]        ib_iface.c:1059 UCX  ERROR ibv_create_cq(cqe=256) failed: Connection timed out
[1739888266.398223] [ohm:147199:0]        ib_iface.c:1059 UCX  ERROR ibv_create_cq(cqe=256) failed: Connection timed out
[1739888266.403708] [ohm:147189:0]        ib_iface.c:1059 UCX  ERROR ibv_create_cq(cqe=256) failed: Connection timed out
[1739888266.463462] [ohm:147284:0]        ib_iface.c:1059 UCX  ERROR ibv_create_cq(cqe=256) failed: Connection timed out
[1739888266.472937] [ohm:147278:0]        ib_iface.c:1059 UCX  ERROR ibv_create_cq(cqe=256) failed: Connection timed out
[1739888266.474247] [ohm:147191:0]        ib_iface.c:1059 UCX  ERROR ibv_create_cq(cqe=256) failed: Connection timed out
[1739888266.476973] [ohm:147192:0]        ib_iface.c:1059 UCX  ERROR ibv_create_cq(cqe=256) failed: Connection timed out
[1739888266.479699] [ohm:147211:0]        ib_iface.c:1059 UCX  ERROR ibv_create_cq(cqe=256) failed: Connection timed out
[1739888266.481028] [ohm:147203:0]        ib_iface.c:1059 UCX  ERROR ibv_create_cq(cqe=256) failed: Connection timed out
[1739888266.491243] [ohm:147241:0]        ib_iface.c:1059 UCX  ERROR ibv_create_cq(cqe=256) failed: Connection timed out
[1739888266.497942] [ohm:147292:0]        ib_iface.c:1059 UCX  ERROR ibv_create_cq(cqe=256) failed: Connection timed out
[1739888266.502200] [ohm:147245:0]        ib_iface.c:1059 UCX  ERROR ibv_create_cq(cqe=256) failed: Connection timed out
[1739888266.514391] [ohm:147193:0]        ib_iface.c:1059 UCX  ERROR ibv_create_cq(cqe=256) failed: Connection timed out
[1739888266.528105] [ohm:147310:0]        ib_iface.c:1059 UCX  ERROR ibv_create_cq(cqe=256) failed: Connection timed out
[1739888266.547757] [ohm:147263:0]        ib_iface.c:1059 UCX  ERROR ibv_create_cq(cqe=256) failed: Connection timed out
[1739888266.552037] [ohm:147261:0]        ib_iface.c:1059 UCX  ERROR ibv_create_cq(cqe=256) failed: Connection timed out
[1739888266.558392] [ohm:147290:0]        ib_iface.c:1059 UCX  ERROR ibv_create_cq(cqe=256) failed: Connection timed out
[1739888266.565802] [ohm:147214:0]        ib_iface.c:1059 UCX  ERROR ibv_create_cq(cqe=256) failed: Connection timed out
[1739888266.571181] [ohm:147286:0]        ib_iface.c:1059 UCX  ERROR ibv_create_cq(cqe=256) failed: Connection timed out
[1739888266.571621] [ohm:147220:0]        ib_iface.c:1059 UCX  ERROR ibv_create_cq(cqe=256) failed: Connection timed out
[1739888266.573644] [ohm:147226:0]        ib_iface.c:1059 UCX  ERROR ibv_create_cq(cqe=256) failed: Connection timed out
[1739888266.578277] [ohm:147212:0]        ib_iface.c:1059 UCX  ERROR ibv_create_cq(cqe=256) failed: Connection timed out
[1739888266.581962] [ohm:147308:0]        ib_iface.c:1059 UCX  ERROR ibv_create_cq(cqe=256) failed: Connection timed out
[1739888266.583731] [ohm:147255:0]        ib_iface.c:1059 UCX  ERROR ibv_create_cq(cqe=256) failed: Connection timed out
[1739888266.586138] [ohm:147314:0]        ib_iface.c:1059 UCX  ERROR ibv_create_cq(cqe=256) failed: Connection timed out
[1739888266.588689] [ohm:147306:0]        ib_iface.c:1059 UCX  ERROR ibv_create_cq(cqe=256) failed: Connection timed out
[1739888266.591557] [ohm:147209:0]        ib_iface.c:1059 UCX  ERROR ibv_create_cq(cqe=256) failed: Connection timed out
[1739888266.600623] [ohm:147322:0]        ib_iface.c:1059 UCX  ERROR ibv_create_cq(cqe=256) failed: Connection timed out
[1739888266.600780] [ohm:147201:0]        ib_iface.c:1059 UCX  ERROR ibv_create_cq(cqe=256) failed: Connection timed out
[1739888266.600934] [ohm:147279:0]        ib_iface.c:1059 UCX  ERROR ibv_create_cq(cqe=256) failed: Connection timed out
[1739888266.612250] [ohm:147240:0]        ib_iface.c:1059 UCX  ERROR ibv_create_cq(cqe=256) failed: Connection timed out
[1739888266.612970] [ohm:147202:0]        ib_iface.c:1059 UCX  ERROR ibv_create_cq(cqe=256) failed: Connection timed out
[1739888266.623115] [ohm:147204:0]        ib_iface.c:1059 UCX  ERROR ibv_create_cq(cqe=256) failed: Connection timed out
[1739888266.623188] [ohm:147216:0]        ib_iface.c:1059 UCX  ERROR ibv_create_cq(cqe=256) failed: Connection timed out
[1739888266.623509] [ohm:147231:0]        ib_iface.c:1059 UCX  ERROR ibv_create_cq(cqe=256) failed: Connection timed out
[1739888266.626233] [ohm:147323:0]        ib_iface.c:1059 UCX  ERROR ibv_create_cq(cqe=256) failed: Connection timed out
[1739888266.627769] [ohm:147271:0]        ib_iface.c:1059 UCX  ERROR ibv_create_cq(cqe=256) failed: Connection timed out
[1739888266.627971] [ohm:147218:0]        ib_iface.c:1059 UCX  ERROR ibv_create_cq(cqe=256) failed: Connection timed out
[1739888266.635773] [ohm:147213:0]        ib_iface.c:1059 UCX  ERROR ibv_create_cq(cqe=256) failed: Connection timed out
[1739888266.640216] [ohm:147270:0]        ib_iface.c:1059 UCX  ERROR ibv_create_cq(cqe=256) failed: Connection timed out
[1739888266.650576] [ohm:147299:0]        ib_iface.c:1059 UCX  ERROR ibv_create_cq(cqe=256) failed: Connection timed out
[1739888266.651635] [ohm:147317:0]        ib_iface.c:1059 UCX  ERROR ibv_create_cq(cqe=256) failed: Connection timed out
[1739888266.652935] [ohm:147331:0]        ib_iface.c:1059 UCX  ERROR ibv_create_cq(cqe=256) failed: Connection timed out
[1739888266.657174] [ohm:147302:0]        ib_iface.c:1059 UCX  ERROR ibv_create_cq(cqe=256) failed: Connection timed out
[1739888266.659588] [ohm:147232:0]        ib_iface.c:1059 UCX  ERROR ibv_create_cq(cqe=256) failed: Connection timed out
[1739888266.663659] [ohm:147207:0]        ib_iface.c:1059 UCX  ERROR ibv_create_cq(cqe=256) failed: Connection timed out
[1739888266.663733] [ohm:147294:0]        ib_iface.c:1059 UCX  ERROR ibv_create_cq(cqe=256) failed: Connection timed out
[1739888266.665668] [ohm:147197:0]        ib_iface.c:1059 UCX  ERROR ibv_create_cq(cqe=256) failed: Connection timed out
[1739888266.667650] [ohm:147253:0]        ib_iface.c:1059 UCX  ERROR ibv_create_cq(cqe=256) failed: Connection timed out
[1739888266.668643] [ohm:147329:0]        ib_iface.c:1059 UCX  ERROR ibv_create_cq(cqe=256) failed: Connection timed out
[1739888266.668954] [ohm:147215:0]        ib_iface.c:1059 UCX  ERROR ibv_create_cq(cqe=256) failed: Connection timed out
[1739888266.669276] [ohm:147208:0]        ib_iface.c:1059 UCX  ERROR ibv_create_cq(cqe=256) failed: Connection timed out
[1739888266.669873] [ohm:147249:0]        ib_iface.c:1059 UCX  ERROR ibv_create_cq(cqe=256) failed: Connection timed out
[1739888266.670319] [ohm:147196:0]        ib_iface.c:1059 UCX  ERROR ibv_create_cq(cqe=256) failed: Connection timed out
[1739888266.673066] [ohm:147222:0]        ib_iface.c:1059 UCX  ERROR ibv_create_cq(cqe=256) failed: Connection timed out
[1739888266.673338] [ohm:147198:0]        ib_iface.c:1059 UCX  ERROR ibv_create_cq(cqe=256) failed: Connection timed out
[1739888266.674704] [ohm:147237:0]        ib_iface.c:1059 UCX  ERROR ibv_create_cq(cqe=256) failed: Connection timed out


           ************************************************************
           *        Program running with 64 parallel MPI-processes    *
           *              working on a common directory               *
           ************************************************************
-------------------------------------------------------------------------------
                                 ORCA GUESS
                   Start orbitals & Density for SCF / CASSCF
-------------------------------------------------------------------------------

------------
SCF SETTINGS
------------
Hamiltonian:
 Density Functional     Method          .... DFT(GTOs)
  Functional kind                       .... Exchange-Correlation
  Functional name                       .... wB97M-V exchange-correlation functional
  Functional family                     .... Hybrid MGGA
  Functional refs                              
    [ 0] N. Mardirossian and M. Head-Gordon.,  J. Chem. Phys. 144, 214110 (2016), doi: 10.1063/1.4952647
  Fraction of HF Exchange (short range) .... 0.1500
  Fraction of HF Exchange (long range)  .... 1.0000
  Range separation parameter mu         .... 0.3000
  Functional external parameters        .... 17
    Parameter  0 _cx00      =  8.500000e-01 : u^00 coefficient for exchange
    Parameter  1 _cx01      =  1.007000e+00 : u^01 coefficient for exchange
    Parameter  2 _cx10      =  2.590000e-01 : u^10 coefficient for exchange
    Parameter  3 _css00     =  4.430000e-01 : u^00 coefficient for same-spin correlation
    Parameter  4 _css04     = -1.437000e+00 : u^04 coefficient for same-spin correlation
    Parameter  5 _css10     = -4.535000e+00 : u^10 coefficient for same-spin correlation
    Parameter  6 _css20     = -3.390000e+00 : u^20 coefficient for same-spin correlation
    Parameter  7 _css43     =  4.278000e+00 : u^43 coefficient for same-spin correlation
    Parameter  8 _cos00     =  1.000000e+00 : u^00 coefficient for opposite-spin correlation
    Parameter  9 _cos10     =  1.358000e+00 : u^10 coefficient for opposite-spin correlation
    Parameter 10 _cos20     =  2.924000e+00 : u^20 coefficient for opposite-spin correlation
    Parameter 11 _cos21     = -8.812000e+00 : u^21 coefficient for opposite-spin correlation
    Parameter 12 _cos60     = -1.390000e+00 : u^60 coefficient for opposite-spin correlation
    Parameter 13 _cos61     =  9.142000e+00 : u^61 coefficient for opposite-spin correlation
    Parameter 14 _alpha     =  1.000000e+00 : fraction of HF exchange
    Parameter 15 _beta      = -8.500000e-01 : fraction of short-range exchange
    Parameter 16 _omega     =  3.000000e-01 : range-separation constant
 Long-range corrected/Screened/Range-Separated Hybrid DFT is turned on
   Amount of maximum screened exact exchange              ....  0.850000
   Range separation parameter mu (erf(mu*r12)/r12)        ....  0.300000
 RI-approximation to the Coulomb term is turned on
   Number of AuxJ basis functions       .... 1014
   RIJ-COSX (HFX calculated with COS-X)).... on


General Settings:
 Integral files         IntName         .... orca
 Hartree-Fock type      HFTyp           .... UHF
 Total Charge           Charge          ....    0
 Multiplicity           Mult            ....    3
 Number of Electrons    NEL             ....  132
 Basis Dimension        Dim             ....  882
 Nuclear Repulsion      ENuc            ....   1447.1723402626 Eh

Convergence Acceleration:
 AO-DIIS                CNVDIIS         .... on
   Start iteration      DIISMaxIt       ....    12
   Startup error        DIISStart       ....  0.200000
   # of expansion vecs  DIISMaxEq       ....     5
   Bias factor          DIISBfac        ....   1.050
   Max. coefficient     DIISMaxC        ....  10.000
 MO-DIIS                CNVKDIIS        .... off
 Trust-Rad. Augm. Hess. CNVTRAH         .... auto
   Auto Start mean grad. ratio tolernc. ....  1.125000
   Auto Start start iteration           ....    50
   Auto Start num. interpolation iter.  ....    10
   Max. Number of Micro iterations      ....    24
   Max. Number of Macro iterations      .... Maxiter - #DIIS iter
   Number of Davidson start vectors     ....     2
   Converg. threshold    (grad. norm)   ....   1.000e-05
   Grad. Scal. Fac. for Micro threshold ....   0.100
   Minimum threshold for Micro iter.    ....   1.000e-02
   NR start threshold (gradient norm)   ....   1.000e-04
   Initial trust radius                 ....   0.400
   Minimum AH scaling param. (alpha)    ....   1.000
   Maximum AH scaling param. (alpha)    .... 1000.000
   Quad. conv. algorithm                .... NR
   White noise on init. David. guess    .... on
   Maximum white noise                  ....   0.010
   Pseudo random numbers                .... off
   Inactive MOs                         .... canonical
   Orbital update algorithm             .... Taylor
   Preconditioner                       .... Diag
   Full preconditioner red. dimension   ....   250
 SOSCF                  CNVSOSCF        .... on
   Start iteration      SOSCFMaxIt      ....   150
   Startup grad/error   SOSCFStart      ....  0.003300
   Hessian update       SOSCFHessUp     .... L-BFGS
 Level Shifting         CNVShift        .... on
   Level shift para.    LevelShift      ....    0.2500
   Turn off err/grad.   ShiftErr        ....    0.0010
 Zerner damping         CNVZerner       .... off
 Static damping         CNVDamp         .... on
   Fraction old density DampFac         ....    0.7000
   Max. Damping (<1)    DampMax         ....    0.9800
   Min. Damping (>=0)   DampMin         ....    0.0000
   Turn off err/grad.   DampErr         ....    0.1000

SCF Procedure:
 Maximum # iterations   MaxIter         ....   125
 SCF integral mode      SCFMode         .... Direct
   Integral package                     .... SHARK and LIBINT hybrid scheme
 Reset frequency        DirectResetFreq ....    20
 Integral Threshold     Thresh          ....  1.000e-12 Eh
 Primitive CutOff       TCut            ....  1.000e-13 Eh

Convergence Tolerance:
 Convergence Check Mode ConvCheckMode   .... Total+1el-Energy
 Convergence forced     ConvForced      .... 1
 Energy Change          TolE            ....  1.000e-08 Eh
 1-El. energy change                    ....  1.000e-05 Eh
 Orbital Gradient       TolG            ....  1.000e-05
 Orbital Rotation angle TolX            ....  1.000e-05
 DIIS Error             TolErr          ....  5.000e-07

------------------------------
INITIAL GUESS: MODEL POTENTIAL
------------------------------
Loading Hartree-Fock densities                     ... done
Calculating cut-offs                               ... done
Initializing the effective Hamiltonian             ... done
Setting up the integral package (SHARK)            ... done
Starting the Coulomb interaction                   ... done (   0.1 sec)
Making the grid                                    ... done (   0.2 sec)
Mapping shells                                     ... done
Starting the XC term evaluation                    ... done (   0.1 sec)
  promolecular density results
     # of electrons  =    131.990594738
     EX              =   -113.574824684
     EC              =     -4.499045066
     EX+EC           =   -118.073869750
Transforming the Hamiltonian                       ... done (   0.1 sec)
Diagonalizing the Hamiltonian                      ... done (   0.1 sec)
Back transforming the eigenvectors                 ... done (   0.1 sec)
Now organizing SCF variables                       ... done
                      ------------------
                      INITIAL GUESS DONE (   1.1 sec)
                      ------------------
             **** ENERGY FILE WAS UPDATED (orca.en.tmp) ****
Finished Guess after   3.6 sec
Maximum memory used throughout the entire GUESS-calculation: 72.6 MB
[1739888270.634850] [ohm:147570:0]        ib_iface.c:1059 UCX  ERROR ibv_create_cq(cqe=256) failed: Connection timed out
[1739888270.635679] [ohm:147566:0]        ib_iface.c:1059 UCX  ERROR ibv_create_cq(cqe=256) failed: Connection timed out
[1739888270.646360] [ohm:147553:0]        ib_iface.c:1059 UCX  ERROR ibv_create_cq(cqe=256) failed: Connection timed out
[1739888270.650863] [ohm:147555:0]        ib_iface.c:1059 UCX  ERROR ibv_create_cq(cqe=256) failed: Connection timed out
[1739888270.655070] [ohm:147551:0]        ib_iface.c:1059 UCX  ERROR ibv_create_cq(cqe=256) failed: Connection timed out
[1739888270.656299] [ohm:147558:0]        ib_iface.c:1059 UCX  ERROR ibv_create_cq(cqe=256) failed: Connection timed out
[1739888270.670119] [ohm:147554:0]        ib_iface.c:1059 UCX  ERROR ibv_create_cq(cqe=256) failed: Connection timed out
[1739888270.675747] [ohm:147550:0]        ib_iface.c:1059 UCX  ERROR ibv_create_cq(cqe=256) failed: Connection timed out
[1739888270.676153] [ohm:147557:0]        ib_iface.c:1059 UCX  ERROR ibv_create_cq(cqe=256) failed: Connection timed out
[1739888270.704143] [ohm:147574:0]        ib_iface.c:1059 UCX  ERROR ibv_create_cq(cqe=256) failed: Connection timed out
[1739888270.705221] [ohm:147564:0]        ib_iface.c:1059 UCX  ERROR ibv_create_cq(cqe=256) failed: Connection timed out
[1739888270.707155] [ohm:147556:0]        ib_iface.c:1059 UCX  ERROR ibv_create_cq(cqe=256) failed: Connection timed out
[1739888270.713862] [ohm:147573:0]        ib_iface.c:1059 UCX  ERROR ibv_create_cq(cqe=256) failed: Connection timed out
[1739888270.720468] [ohm:147576:0]        ib_iface.c:1059 UCX  ERROR ibv_create_cq(cqe=256) failed: Connection timed out
[1739888270.769919] [ohm:147578:0]        ib_iface.c:1059 UCX  ERROR ibv_create_cq(cqe=256) failed: Connection timed out
[1739888270.785199] [ohm:147581:0]        ib_iface.c:1059 UCX  ERROR ibv_create_cq(cqe=256) failed: Connection timed out
[1739888270.792305] [ohm:147552:0]        ib_iface.c:1059 UCX  ERROR ibv_create_cq(cqe=256) failed: Connection timed out
[1739888270.803795] [ohm:147632:0]        ib_iface.c:1059 UCX  ERROR ibv_create_cq(cqe=256) failed: Connection timed out
[1739888270.812267] [ohm:147593:0]        ib_iface.c:1059 UCX  ERROR ibv_create_cq(cqe=256) failed: Connection timed out
[1739888270.815589] [ohm:147606:0]        ib_iface.c:1059 UCX  ERROR ibv_create_cq(cqe=256) failed: Connection timed out
[1739888270.818734] [ohm:147584:0]        ib_iface.c:1059 UCX  ERROR ibv_create_cq(cqe=256) failed: Connection timed out
[1739888270.827703] [ohm:147596:0]        ib_iface.c:1059 UCX  ERROR ibv_create_cq(cqe=256) failed: Connection timed out
[1739888270.829006] [ohm:147659:0]        ib_iface.c:1059 UCX  ERROR ibv_create_cq(cqe=256) failed: Connection timed out
[1739888270.832617] [ohm:147641:0]        ib_iface.c:1059 UCX  ERROR ibv_create_cq(cqe=256) failed: Connection timed out
[1739888270.833078] [ohm:147567:0]        ib_iface.c:1059 UCX  ERROR ibv_create_cq(cqe=256) failed: Connection timed out
[1739888270.839685] [ohm:147614:0]        ib_iface.c:1059 UCX  ERROR ibv_create_cq(cqe=256) failed: Connection timed out
[1739888270.840371] [ohm:147609:0]        ib_iface.c:1059 UCX  ERROR ibv_create_cq(cqe=256) failed: Connection timed out
[1739888270.849586] [ohm:147624:0]        ib_iface.c:1059 UCX  ERROR ibv_create_cq(cqe=256) failed: Connection timed out
[1739888270.858405] [ohm:147604:0]        ib_iface.c:1059 UCX  ERROR ibv_create_cq(cqe=256) failed: Connection timed out
[1739888270.872856] [ohm:147688:0]        ib_iface.c:1059 UCX  ERROR ibv_create_cq(cqe=256) failed: Connection timed out
[1739888270.882884] [ohm:147673:0]        ib_iface.c:1059 UCX  ERROR ibv_create_cq(cqe=256) failed: Connection timed out
[1739888270.886237] [ohm:147675:0]        ib_iface.c:1059 UCX  ERROR ibv_create_cq(cqe=256) failed: Connection timed out
[1739888270.887430] [ohm:147662:0]        ib_iface.c:1059 UCX  ERROR ibv_create_cq(cqe=256) failed: Connection timed out
[1739888270.887930] [ohm:147571:0]        ib_iface.c:1059 UCX  ERROR ibv_create_cq(cqe=256) failed: Connection timed out
[1739888270.890323] [ohm:147616:0]        ib_iface.c:1059 UCX  ERROR ibv_create_cq(cqe=256) failed: Connection timed out
[1739888270.894482] [ohm:147701:0]        ib_iface.c:1059 UCX  ERROR ibv_create_cq(cqe=256) failed: Connection timed out
[1739888270.895490] [ohm:147648:0]        ib_iface.c:1059 UCX  ERROR ibv_create_cq(cqe=256) failed: Connection timed out
[1739888270.897058] [ohm:147633:0]        ib_iface.c:1059 UCX  ERROR ibv_create_cq(cqe=256) failed: Connection timed out
[1739888270.907648] [ohm:147563:0]        ib_iface.c:1059 UCX  ERROR ibv_create_cq(cqe=256) failed: Connection timed out
[1739888270.910015] [ohm:147669:0]        ib_iface.c:1059 UCX  ERROR ibv_create_cq(cqe=256) failed: Connection timed out
[1739888270.916867] [ohm:147643:0]        ib_iface.c:1059 UCX  ERROR ibv_create_cq(cqe=256) failed: Connection timed out
[1739888270.918589] [ohm:147565:0]        ib_iface.c:1059 UCX  ERROR ibv_create_cq(cqe=256) failed: Connection timed out
[1739888270.922976] [ohm:147562:0]        ib_iface.c:1059 UCX  ERROR ibv_create_cq(cqe=256) failed: Connection timed out
[1739888270.925329] [ohm:147601:0]        ib_iface.c:1059 UCX  ERROR ibv_create_cq(cqe=256) failed: Connection timed out
[1739888270.931076] [ohm:147671:0]        ib_iface.c:1059 UCX  ERROR ibv_create_cq(cqe=256) failed: Connection timed out
[1739888270.947909] [ohm:147646:0]        ib_iface.c:1059 UCX  ERROR ibv_create_cq(cqe=256) failed: Connection timed out
[1739888270.952352] [ohm:147575:0]        ib_iface.c:1059 UCX  ERROR ibv_create_cq(cqe=256) failed: Connection timed out
[1739888270.952811] [ohm:147679:0]        ib_iface.c:1059 UCX  ERROR ibv_create_cq(cqe=256) failed: Connection timed out
[1739888270.955322] [ohm:147560:0]        ib_iface.c:1059 UCX  ERROR ibv_create_cq(cqe=256) failed: Connection timed out
[1739888270.956710] [ohm:147588:0]        ib_iface.c:1059 UCX  ERROR ibv_create_cq(cqe=256) failed: Connection timed out
[1739888270.958312] [ohm:147681:0]        ib_iface.c:1059 UCX  ERROR ibv_create_cq(cqe=256) failed: Connection timed out
[1739888270.959594] [ohm:147572:0]        ib_iface.c:1059 UCX  ERROR ibv_create_cq(cqe=256) failed: Connection timed out
[1739888270.959831] [ohm:147640:0]        ib_iface.c:1059 UCX  ERROR ibv_create_cq(cqe=256) failed: Connection timed out
[1739888270.961402] [ohm:147667:0]        ib_iface.c:1059 UCX  ERROR ibv_create_cq(cqe=256) failed: Connection timed out
[1739888270.964038] [ohm:147695:0]        ib_iface.c:1059 UCX  ERROR ibv_create_cq(cqe=256) failed: Connection timed out
[1739888270.964826] [ohm:147559:0]        ib_iface.c:1059 UCX  ERROR ibv_create_cq(cqe=256) failed: Connection timed out
[1739888270.966498] [ohm:147627:0]        ib_iface.c:1059 UCX  ERROR ibv_create_cq(cqe=256) failed: Connection timed out
[1739888270.966775] [ohm:147577:0]        ib_iface.c:1059 UCX  ERROR ibv_create_cq(cqe=256) failed: Connection timed out
[1739888270.967107] [ohm:147568:0]        ib_iface.c:1059 UCX  ERROR ibv_create_cq(cqe=256) failed: Connection timed out
[1739888270.968087] [ohm:147561:0]        ib_iface.c:1059 UCX  ERROR ibv_create_cq(cqe=256) failed: Connection timed out
[1739888270.968885] [ohm:147655:0]        ib_iface.c:1059 UCX  ERROR ibv_create_cq(cqe=256) failed: Connection timed out
[1739888270.969265] [ohm:147621:0]        ib_iface.c:1059 UCX  ERROR ibv_create_cq(cqe=256) failed: Connection timed out
[1739888270.970862] [ohm:147651:0]        ib_iface.c:1059 UCX  ERROR ibv_create_cq(cqe=256) failed: Connection timed out
[1739888270.976415] [ohm:147569:0]        ib_iface.c:1059 UCX  ERROR ibv_create_cq(cqe=256) failed: Connection timed out


           ************************************************************
           *        Program running with 64 parallel MPI-processes    *
           *              working on a common directory               *
           ************************************************************

-------------------------------------------------------------------------------------------
                                      ORCA LEAN-SCF
                              memory conserving SCF solver
-------------------------------------------------------------------------------------------

----------------------------------------D-I-I-S--------------------------------------------
Iteration    Energy (Eh)           Delta-E    RMSDP     MaxDP     DIISErr   Damp  Time(sec)
-------------------------------------------------------------------------------------------
               ***  Starting incremental Fock matrix formation  ***
    1    -908.1330073232875293     0.00e+00  1.53e-03  2.30e-01  1.47e-01  0.700   7.9
    2    -908.4001608428748114    -2.67e-01  1.22e-03  1.62e-01  6.90e-02  0.700   6.5
                               ***Turning on AO-DIIS***
    3    -908.5177503552545204    -1.18e-01  8.78e-04  1.06e-01  2.88e-02  0.700   5.7
    4    -908.5902534540168745    -7.25e-02  2.15e-03  2.27e-01  1.76e-02  0.000   5.7
    5    -908.7534310962632844    -1.63e-01  3.29e-04  7.37e-02  4.38e-03  0.000   5.8
                              *** Initializing SOSCF ***
---------------------------------------S-O-S-C-F--------------------------------------
Iteration    Energy (Eh)           Delta-E    RMSDP     MaxDP     MaxGrad    Time(sec)
--------------------------------------------------------------------------------------
    6    -908.7548031134870143    -1.37e-03  1.57e-04  4.13e-02  2.40e-03     6.5
               *** Restarting incremental Fock matrix formation ***
    7    -908.7554570334109485    -6.54e-04  2.44e-04  5.47e-02  5.20e-03     7.4
    8    -908.7558716342978187    -4.15e-04  2.65e-04  6.53e-02  2.77e-03     6.7
    9    -908.7560248249305914    -1.53e-04  1.20e-04  2.67e-02  8.05e-04     6.7
   10    -908.7560903534517820    -6.55e-05  3.99e-05  1.32e-02  4.91e-04     6.5
   11    -908.7561027755368741    -1.24e-05  9.98e-06  2.02e-03  1.30e-04     6.3
   12    -908.7561047744648022    -2.00e-06  6.84e-06  1.49e-03  1.22e-04     6.2
   13    -908.7561059083818691    -1.13e-06  4.79e-06  9.38e-04  3.67e-05     6.2
   14    -908.7561060974971952    -1.89e-07  1.68e-06  4.16e-04  1.81e-05     6.1
   15    -908.7561061457349751    -4.82e-08  1.19e-06  2.50e-04  1.09e-05     5.8
   16    -908.7561061932397024    -4.75e-08  1.27e-06  2.52e-04  4.96e-06     5.8
   17    -908.7561061500859978     4.32e-08  1.55e-06  4.16e-04  2.03e-06     5.6
                  *** Gradient check signals convergence ***

               *****************************************************
               *                     SUCCESS                       *
               *           SCF CONVERGED AFTER  17 CYCLES          *
               *****************************************************

Recomputing exchange energy using gridx3       ... done (    8.367 sec)
Old exchange energy                            :    -35.049831403 Eh
New exchange energy                            :    -35.049848254 Eh
Exchange energy change after final integration :     -0.000016851 Eh
Total energy after final integration           :   -908.756123001 Eh
             **** ENERGY FILE WAS UPDATED (orca.en.tmp) ****

----------------
TOTAL SCF ENERGY
----------------

Total Energy       :       -908.75612300126181 Eh          -24728.51128 eV

Components:
Nuclear Repulsion  :       1447.17234026255619 Eh           39379.56140 eV
Electronic Energy  :      -2355.92844641264219 Eh          -64108.07222 eV
One Electron Energy:      -4111.16629904758338 Eh         -111870.52238 eV
Two Electron Energy:       1755.23785263494096 Eh           47762.45017 eV

Virial components:
Potential Energy   :      -1814.68050372970902 Eh          -49379.96694 eV
Kinetic Energy     :        905.92438072844720 Eh           24651.45566 eV
Virial Ratio       :          2.00312580424267

DFT components:
N(Alpha)           :       67.000136818725 electrons
N(Beta)            :       65.000163680724 electrons
N(Total)           :      132.000300499449 electrons
E(XC)              :      -86.298404482027 Eh       

---------------
SCF CONVERGENCE
---------------

  Last Energy change         ...   -4.3154e-08  Tolerance :   1.0000e-08
  Last MAX-Density change    ...    4.1579e-04  Tolerance :   1.0000e-07
  Last RMS-Density change    ...    1.5517e-06  Tolerance :   5.0000e-09
  Last DIIS Error            ...    2.3986e-03  Tolerance :   5.0000e-07
  Last Orbital Gradient      ...    2.0308e-06  Tolerance :   1.0000e-05
  Last Orbital Rotation      ...    1.1276e-05  Tolerance :   1.0000e-05


----------------------
UHF SPIN CONTAMINATION
----------------------

Warning: in a DFT calculation there is little theoretical justification to 
         calculate <S**2> as in Hartree-Fock theory. We will do it anyways
         but you should keep in mind that the values have only limited relevance

Expectation value of <S**2>     :     2.012779
Ideal value S*(S+1) for S=1.0   :     2.000000
Deviation                       :     0.012779

----------------
ORBITAL ENERGIES
----------------
                 SPIN UP ORBITALS
  NO   OCC          E(Eh)            E(eV) 
   0   1.0000     -19.334723      -526.1246 
   1   1.0000     -19.334627      -526.1219 
   2   1.0000     -19.322596      -525.7946 
   3   1.0000     -19.320527      -525.7383 
   4   1.0000     -14.567213      -396.3940 
   5   1.0000     -14.566595      -396.3772 
   6   1.0000     -14.564911      -396.3314 
   7   1.0000     -14.564293      -396.3145 
   8   1.0000     -10.510519      -286.0058 
   9   1.0000     -10.507037      -285.9110 
  10   1.0000     -10.482535      -285.2443 
  11   1.0000     -10.481031      -285.2034 
  12   1.0000     -10.445222      -284.2289 
  13   1.0000     -10.442555      -284.1564 
  14   1.0000     -10.415975      -283.4331 
  15   1.0000     -10.414964      -283.4056 
  16   1.0000     -10.379931      -282.4523 
  17   1.0000     -10.374214      -282.2967 
  18   1.0000      -1.228040       -33.4167 
  19   1.0000      -1.211690       -32.9718 
  20   1.0000      -1.200580       -32.6694 
  21   1.0000      -1.191239       -32.4153 
  22   1.0000      -1.121120       -30.5072 
  23   1.0000      -1.098645       -29.8956 
  24   1.0000      -1.066613       -29.0240 
  25   1.0000      -1.056147       -28.7392 
  26   1.0000      -0.992307       -27.0020 
  27   1.0000      -0.963706       -26.2238 
  28   1.0000      -0.889202       -24.1964 
  29   1.0000      -0.848498       -23.0888 
  30   1.0000      -0.834749       -22.7147 
  31   1.0000      -0.803579       -21.8665 
  32   1.0000      -0.792040       -21.5525 
  33   1.0000      -0.783493       -21.3199 
  34   1.0000      -0.702893       -19.1267 
  35   1.0000      -0.694837       -18.9075 
  36   1.0000      -0.689945       -18.7743 
  37   1.0000      -0.681353       -18.5406 
  38   1.0000      -0.661127       -17.9902 
  39   1.0000      -0.636618       -17.3233 
  40   1.0000      -0.630112       -17.1462 
  41   1.0000      -0.604510       -16.4496 
  42   1.0000      -0.596171       -16.2226 
  43   1.0000      -0.586707       -15.9651 
  44   1.0000      -0.580294       -15.7906 
  45   1.0000      -0.575016       -15.6470 
  46   1.0000      -0.568419       -15.4675 
  47   1.0000      -0.561774       -15.2867 
  48   1.0000      -0.561354       -15.2752 
  49   1.0000      -0.557253       -15.1636 
  50   1.0000      -0.549904       -14.9637 
  51   1.0000      -0.547452       -14.8969 
  52   1.0000      -0.533768       -14.5246 
  53   1.0000      -0.526429       -14.3249 
  54   1.0000      -0.518757       -14.1161 
  55   1.0000      -0.513586       -13.9754 
  56   1.0000      -0.499065       -13.5802 
  57   1.0000      -0.426888       -11.6162 
  58   1.0000      -0.419277       -11.4091 
  59   1.0000      -0.411421       -11.1953 
  60   1.0000      -0.405004       -11.0207 
  61   1.0000      -0.401672       -10.9301 
  62   1.0000      -0.394720       -10.7409 
  63   1.0000      -0.391968       -10.6660 
  64   1.0000      -0.384170       -10.4538 
  65   1.0000      -0.343015        -9.3339 
  66   1.0000      -0.331874        -9.0308 
  67   0.0000       0.006514         0.1772 
  68   0.0000       0.027917         0.7596 
  69   0.0000       0.034347         0.9346 
  70   0.0000       0.035912         0.9772 
  71   0.0000       0.054763         1.4902 
  72   0.0000       0.056273         1.5313 
  73   0.0000       0.057715         1.5705 
  74   0.0000       0.062786         1.7085 
  75   0.0000       0.064522         1.7557 
  76   0.0000       0.067621         1.8401 
  77   0.0000       0.070187         1.9099 

                 SPIN DOWN ORBITALS
  NO   OCC          E(Eh)            E(eV) 
   0   1.0000     -19.330951      -526.0219 
   1   1.0000     -19.330566      -526.0115 
   2   1.0000     -19.322374      -525.7885 
   3   1.0000     -19.320465      -525.7366 
   4   1.0000     -14.566817      -396.3832 
   5   1.0000     -14.565874      -396.3576 
   6   1.0000     -14.564212      -396.3124 
   7   1.0000     -14.564078      -396.3087 
   8   1.0000     -10.510565      -286.0070 
   9   1.0000     -10.507072      -285.9120 
  10   1.0000     -10.483373      -285.2671 
  11   1.0000     -10.482079      -285.2319 
  12   1.0000     -10.445020      -284.2234 
  13   1.0000     -10.441785      -284.1354 
  14   1.0000     -10.404475      -283.1202 
  15   1.0000     -10.403410      -283.0912 
  16   1.0000     -10.380402      -282.4651 
  17   1.0000     -10.374683      -282.3095 
  18   1.0000      -1.226739       -33.3813 
  19   1.0000      -1.208339       -32.8806 
  20   1.0000      -1.195239       -32.5241 
  21   1.0000      -1.188626       -32.3441 
  22   1.0000      -1.118029       -30.4231 
  23   1.0000      -1.096589       -29.8397 
  24   1.0000      -1.064603       -28.9693 
  25   1.0000      -1.054568       -28.6963 
  26   1.0000      -0.979076       -26.6420 
  27   1.0000      -0.946907       -25.7667 
  28   1.0000      -0.883885       -24.0517 
  29   1.0000      -0.843611       -22.9558 
  30   1.0000      -0.825458       -22.4618 
  31   1.0000      -0.797922       -21.7126 
  32   1.0000      -0.790418       -21.5084 
  33   1.0000      -0.782190       -21.2845 
  34   1.0000      -0.696114       -18.9422 
  35   1.0000      -0.689351       -18.7582 
  36   1.0000      -0.684273       -18.6200 
  37   1.0000      -0.673903       -18.3378 
  38   1.0000      -0.647878       -17.6297 
  39   1.0000      -0.633475       -17.2377 
  40   1.0000      -0.625866       -17.0307 
  41   1.0000      -0.599185       -16.3047 
  42   1.0000      -0.590098       -16.0574 
  43   1.0000      -0.579572       -15.7709 
  44   1.0000      -0.570835       -15.5332 
  45   1.0000      -0.567822       -15.4512 
  46   1.0000      -0.563850       -15.3432 
  47   1.0000      -0.558696       -15.2029 
  48   1.0000      -0.551359       -15.0032 
  49   1.0000      -0.549229       -14.9453 
  50   1.0000      -0.545413       -14.8414 
  51   1.0000      -0.538666       -14.6578 
  52   1.0000      -0.526340       -14.3224 
  53   1.0000      -0.520191       -14.1551 
  54   1.0000      -0.509369       -13.8606 
  55   1.0000      -0.507208       -13.8018 
  56   1.0000      -0.493343       -13.4245 
  57   1.0000      -0.420197       -11.4341 
  58   1.0000      -0.415844       -11.3157 
  59   1.0000      -0.404833       -11.0161 
  60   1.0000      -0.396145       -10.7797 
  61   1.0000      -0.389939       -10.6108 
  62   1.0000      -0.389562       -10.6005 
  63   1.0000      -0.386996       -10.5307 
  64   1.0000      -0.373880       -10.1738 
  65   0.0000      -0.057723        -1.5707 
  66   0.0000      -0.055019        -1.4971 
  67   0.0000       0.005999         0.1632 
  68   0.0000       0.027789         0.7562 
  69   0.0000       0.034042         0.9263 
  70   0.0000       0.035853         0.9756 
  71   0.0000       0.055836         1.5194 
  72   0.0000       0.057678         1.5695 
  73   0.0000       0.058949         1.6041 
  74   0.0000       0.062998         1.7143 
  75   0.0000       0.064854         1.7648 
*Only the first 10 virtual orbitals were printed.

                    ********************************
                    * MULLIKEN POPULATION ANALYSIS *
                    ********************************

--------------------------------------------
MULLIKEN ATOMIC CHARGES AND SPIN POPULATIONS
--------------------------------------------
   0 O :   -0.653145    0.135329
   1 O :   -0.674833    0.150370
   2 O :   -0.676088    0.002702
   3 O :   -0.640242    0.007753
   4 N :   -0.216569    0.025410
   5 N :   -0.278815    0.040204
   6 N :   -0.014682    0.037035
   7 N :    0.035568    0.015626
   8 C :   -0.031698    0.527127
   9 C :    0.054341    0.379755
  10 C :    0.294367    0.114656
  11 C :    0.832172    0.183414
  12 C :   -1.297223    0.011426
  13 C :   -1.460881   -0.005204
  14 C :    0.580752    0.071047
  15 C :    0.342807    0.170629
  16 C :    0.429924   -0.016183
  17 C :    0.314751   -0.005817
  18 H :    0.503001    0.031707
  19 H :    0.456577    0.021166
  20 H :    0.255593    0.035770
  21 H :    0.333131   -0.000706
  22 H :    0.343450    0.014473
  23 H :    0.355000    0.028598
  24 H :    0.227764    0.015552
  25 H :    0.353772    0.009131
  26 H :    0.070791   -0.000588
  27 H :    0.068669    0.001066
  28 H :    0.053460   -0.001459
  29 H :    0.038286    0.000011
Sum of atomic charges         :   -0.0000000
Sum of atomic spin populations:    2.0000000

-----------------------------------------------------
MULLIKEN REDUCED ORBITAL CHARGES AND SPIN POPULATIONS
-----------------------------------------------------
CHARGE
  0 O s       :     4.088865  s :     4.088865
      pz      :     1.713412  p :     4.531178
      px      :     1.338512
      py      :     1.479253
      dz2     :     0.003065  d :     0.031190
      dxz     :     0.003231
      dyz     :     0.004600
      dx2y2   :     0.013033
      dxy     :     0.007260
      f0      :     0.000198  f :     0.001912
      f+1     :     0.000246
      f-1     :     0.000160
      f+2     :     0.000113
      f-2     :     0.000331
      f+3     :     0.000484
      f-3     :     0.000380

  1 O s       :     4.099384  s :     4.099384
      pz      :     1.327547  p :     4.543597
[...]
[1739888530.508519] [ohm:149904:0]        ib_iface.c:1059 UCX  ERROR ibv_create_cq(cqe=256) failed: Connection timed out
[1739888530.515688] [ohm:149920:0]        ib_iface.c:1059 UCX  ERROR ibv_create_cq(cqe=256) failed: Connection timed out
[1739888530.516902] [ohm:150003:0]        ib_iface.c:1059 UCX  ERROR ibv_create_cq(cqe=256) failed: Connection timed out
[1739888530.517883] [ohm:150016:0]        ib_iface.c:1059 UCX  ERROR ibv_create_cq(cqe=256) failed: Connection timed out
[1739888530.518040] [ohm:149918:0]        ib_iface.c:1059 UCX  ERROR ibv_create_cq(cqe=256) failed: Connection timed out
[1739888530.518630] [ohm:150030:0]        ib_iface.c:1059 UCX  ERROR ibv_create_cq(cqe=256) failed: Connection timed out
[1739888530.521433] [ohm:149989:0]        ib_iface.c:1059 UCX  ERROR ibv_create_cq(cqe=256) failed: Connection timed out
[1739888530.523856] [ohm:149962:0]        ib_iface.c:1059 UCX  ERROR ibv_create_cq(cqe=256) failed: Connection timed out
[1739888530.524745] [ohm:149986:0]        ib_iface.c:1059 UCX  ERROR ibv_create_cq(cqe=256) failed: Connection timed out
[1739888530.525509] [ohm:149992:0]        ib_iface.c:1059 UCX  ERROR ibv_create_cq(cqe=256) failed: Connection timed out
[1739888530.525674] [ohm:149982:0]        ib_iface.c:1059 UCX  ERROR ibv_create_cq(cqe=256) failed: Connection timed out


           ************************************************************
           *        Program running with 64 parallel MPI-processes    *
           *              working on a common directory               *
           ************************************************************

------------------------------------------------------------------------------
                              ORCA PROPERTY CALCULATIONS
------------------------------------------------------------------------------

GBWName                                 ... orca.gbw
Number of atoms                         ...     30
Number of basis functions               ...    882
Max core memory                         ...   1024 MB

Electric properties:
Dipole moment                           ... YES
Quadrupole moment                       ...  NO
Static polarizability (Dipole/Dipole)   ...  NO
Static polarizability (Dipole/Quad.)    ...  NO
Static polarizability (Quad./Quad.)     ...  NO
Static polarizability (Velocity)        ...  NO

Atomic electric properties:
Dipole moment                           ...  NO
Quadrupole moment                       ...  NO
Static polarizability                   ...  NO

Choice of electric origin               ... Center of mass
Position of electric origin             ...     0.001426    -0.016235     0.030872

General magnetic properties:
Magnetizability                         ...  NO

EPR properties:
g-Tensor (aka g-matrix)                 ...  NO
Zero-Field splitting spin-orbit         ...  NO
Zero-field splitting spin-spin          ...  NO
Hyperfine couplings                     ...  NO (   0 nuclei)
Quadrupole couplings                    ...  NO (   0 nuclei)
Contact density                         ...  NO (   0 nuclei)

NMR properties:
Chemical shifts                         ...  NO (   0 nuclei)
Spin-rotation constants                 ...  NO (   0 nuclei)
Spin-spin couplings                     ...  NO (   0 nuclei,    0 pairs)

Choice of magnetic origin               ... GIAO
Position of magnetic origin             ...     0.000000     0.000000     0.000000

Properties with geometric perturbations:
SCF Hessian                             ...  NO
IR spectrum                             ...  NO
VCD spectrum                            ...  NO
X-ray spectroscopy properties:
SCF XES/XAS/RIXS spectra                ...  NO


-------------
DIPOLE MOMENT
-------------

Method             : SCF
Type of density    : Electron Density
Multiplicity       :   3
Irrep              :   0
Energy             :  -908.7561230012618125 Eh
Relativity type    : 
Basis              : AO
                                X                 Y                 Z
Electronic contribution:     -2.235490936      -9.894780942      -6.474940347
Nuclear contribution   :      2.169356692      11.421286007       8.837831142
                        -----------------------------------------
Total Dipole Moment    :     -0.066134244       1.526505064       2.362890796
                        -----------------------------------------
Magnitude (a.u.)       :      2.813866443
Magnitude (Debye)      :      7.152280098



--------------------
Rotational spectrum 
--------------------
 
Rotational constants in cm-1:             0.020319             0.013762             0.012075 
Rotational constants in MHz :           609.141872           412.588400           362.010348 

Dipole components along the rotational axes: 
x,y,z [a.u.] :     0.306195     2.171069     1.763675 
x,y,z [Debye]:     0.778285     5.518418     4.482906 

 

-------------
DIPOLE MOMENT
-------------

Method             : TDA/CIS
Type of density    : Electron Density
Level              : Relaxed density
State              :   1
Multiplicity       :   3
Irrep              :   0
Energy             :     0.0000000000000000 Eh
Relativity type    : 
Basis              : AO
                                X                 Y                 Z
Electronic contribution:     -2.387313735      -9.816985822      -6.427641480
Nuclear contribution   :      2.169356692      11.421286007       8.837831142
                        -----------------------------------------
Total Dipole Moment    :     -0.217957043       1.604300185       2.410189662
                        -----------------------------------------
Magnitude (a.u.)       :      2.903497643
Magnitude (Debye)      :      7.380104503



--------------------
Rotational spectrum 
--------------------
 
Rotational constants in cm-1:             0.020319             0.013762             0.012075 
Rotational constants in MHz :           609.141872           412.588400           362.010348 

Dipole components along the rotational axes: 
x,y,z [a.u.] :     0.168861     2.279536     1.790391 
x,y,z [Debye]:     0.429211     5.794120     4.550812 

 

Dipole moment calculation done in   0.2 sec 

Maximum memory used throughout the entire PROP-calculation: 81.7 MB
[1739888533.090280] [ohm:150254:0]        ib_iface.c:1059 UCX  ERROR ibv_create_cq(cqe=256) failed: Connection timed out
[1739888533.099489] [ohm:150255:0]        ib_iface.c:1059 UCX  ERROR ibv_create_cq(cqe=256) failed: Connection timed out
[1739888533.110306] [ohm:150284:0]        ib_iface.c:1059 UCX  ERROR ibv_create_cq(cqe=256) failed: Connection timed out
[1739888533.117500] [ohm:150257:0]        ib_iface.c:1059 UCX  ERROR ibv_create_cq(cqe=256) failed: Connection timed out
[1739888533.131995] [ohm:150256:0]        ib_iface.c:1059 UCX  ERROR ibv_create_cq(cqe=256) failed: Connection timed out
[1739888533.142628] [ohm:150271:0]        ib_iface.c:1059 UCX  ERROR ibv_create_cq(cqe=256) failed: Connection timed out
[1739888533.182187] [ohm:150265:0]        ib_iface.c:1059 UCX  ERROR ibv_create_cq(cqe=256) failed: Connection timed out
[1739888533.192489] [ohm:150263:0]        ib_iface.c:1059 UCX  ERROR ibv_create_cq(cqe=256) failed: Connection timed out
[1739888533.193255] [ohm:150258:0]        ib_iface.c:1059 UCX  ERROR ibv_create_cq(cqe=256) failed: Connection timed out
[1739888533.193252] [ohm:150262:0]        ib_iface.c:1059 UCX  ERROR ibv_create_cq(cqe=256) failed: Connection timed out
[1739888533.193696] [ohm:150260:0]        ib_iface.c:1059 UCX  ERROR ibv_create_cq(cqe=256) failed: Connection timed out
[1739888533.194833] [ohm:150266:0]        ib_iface.c:1059 UCX  ERROR ibv_create_cq(cqe=256) failed: Connection timed out
[1739888533.209224] [ohm:150272:0]        ib_iface.c:1059 UCX  ERROR ibv_create_cq(cqe=256) failed: Connection timed out
[1739888533.211524] [ohm:150275:0]        ib_iface.c:1059 UCX  ERROR ibv_create_cq(cqe=256) failed: Connection timed out
[1739888533.211580] [ohm:150261:0]        ib_iface.c:1059 UCX  ERROR ibv_create_cq(cqe=256) failed: Connection timed out
[1739888533.219459] [ohm:150397:0]        ib_iface.c:1059 UCX  ERROR ibv_create_cq(cqe=256) failed: Connection timed out
[1739888533.237304] [ohm:150270:0]        ib_iface.c:1059 UCX  ERROR ibv_create_cq(cqe=256) failed: Connection timed out
[1739888533.243855] [ohm:150337:0]        ib_iface.c:1059 UCX  ERROR ibv_create_cq(cqe=256) failed: Connection timed out
[1739888533.246673] [ohm:150280:0]        ib_iface.c:1059 UCX  ERROR ibv_create_cq(cqe=256) failed: Connection timed out
[1739888533.260856] [ohm:150294:0]        ib_iface.c:1059 UCX  ERROR ibv_create_cq(cqe=256) failed: Connection timed out
[1739888533.264887] [ohm:150300:0]        ib_iface.c:1059 UCX  ERROR ibv_create_cq(cqe=256) failed: Connection timed out
[1739888533.265100] [ohm:150325:0]        ib_iface.c:1059 UCX  ERROR ibv_create_cq(cqe=256) failed: Connection timed out
[1739888533.269292] [ohm:150264:0]        ib_iface.c:1059 UCX  ERROR ibv_create_cq(cqe=256) failed: Connection timed out
[1739888533.302611] [ohm:150350:0]        ib_iface.c:1059 UCX  ERROR ibv_create_cq(cqe=256) failed: Connection timed out
[1739888533.314056] [ohm:150276:0]        ib_iface.c:1059 UCX  ERROR ibv_create_cq(cqe=256) failed: Connection timed out
[1739888533.326214] [ohm:150318:0]        ib_iface.c:1059 UCX  ERROR ibv_create_cq(cqe=256) failed: Connection timed out
[1739888533.348182] [ohm:150259:0]        ib_iface.c:1059 UCX  ERROR ibv_create_cq(cqe=256) failed: Connection timed out
[1739888533.348233] [ohm:150287:0]        ib_iface.c:1059 UCX  ERROR ibv_create_cq(cqe=256) failed: Connection timed out
[1739888533.352206] [ohm:150283:0]        ib_iface.c:1059 UCX  ERROR ibv_create_cq(cqe=256) failed: Connection timed out
[1739888533.352207] [ohm:150268:0]        ib_iface.c:1059 UCX  ERROR ibv_create_cq(cqe=256) failed: Connection timed out
[1739888533.363633] [ohm:150387:0]        ib_iface.c:1059 UCX  ERROR ibv_create_cq(cqe=256) failed: Connection timed out
[1739888533.364792] [ohm:150281:0]        ib_iface.c:1059 UCX  ERROR ibv_create_cq(cqe=256) failed: Connection timed out
[1739888533.388109] [ohm:150332:0]        ib_iface.c:1059 UCX  ERROR ibv_create_cq(cqe=256) failed: Connection timed out
[1739888533.388794] [ohm:150377:0]        ib_iface.c:1059 UCX  ERROR ibv_create_cq(cqe=256) failed: Connection timed out
[1739888533.399742] [ohm:150308:0]        ib_iface.c:1059 UCX  ERROR ibv_create_cq(cqe=256) failed: Connection timed out
[1739888533.405741] [ohm:150279:0]        ib_iface.c:1059 UCX  ERROR ibv_create_cq(cqe=256) failed: Connection timed out
[1739888533.406141] [ohm:150322:0]        ib_iface.c:1059 UCX  ERROR ibv_create_cq(cqe=256) failed: Connection timed out
[1739888533.415148] [ohm:150348:0]        ib_iface.c:1059 UCX  ERROR ibv_create_cq(cqe=256) failed: Connection timed out
[1739888533.415740] [ohm:150273:0]        ib_iface.c:1059 UCX  ERROR ibv_create_cq(cqe=256) failed: Connection timed out
[1739888533.422564] [ohm:150292:0]        ib_iface.c:1059 UCX  ERROR ibv_create_cq(cqe=256) failed: Connection timed out
[1739888533.435327] [ohm:150371:0]        ib_iface.c:1059 UCX  ERROR ibv_create_cq(cqe=256) failed: Connection timed out
[1739888533.437169] [ohm:150305:0]        ib_iface.c:1059 UCX  ERROR ibv_create_cq(cqe=256) failed: Connection timed out
[1739888533.439441] [ohm:150390:0]        ib_iface.c:1059 UCX  ERROR ibv_create_cq(cqe=256) failed: Connection timed out
[1739888533.441424] [ohm:150274:0]        ib_iface.c:1059 UCX  ERROR ibv_create_cq(cqe=256) failed: Connection timed out
[1739888533.443090] [ohm:150313:0]        ib_iface.c:1059 UCX  ERROR ibv_create_cq(cqe=256) failed: Connection timed out
[1739888533.454214] [ohm:150267:0]        ib_iface.c:1059 UCX  ERROR ibv_create_cq(cqe=256) failed: Connection timed out
[1739888533.454440] [ohm:150360:0]        ib_iface.c:1059 UCX  ERROR ibv_create_cq(cqe=256) failed: Connection timed out
[1739888533.456762] [ohm:150384:0]        ib_iface.c:1059 UCX  ERROR ibv_create_cq(cqe=256) failed: Connection timed out
[1739888533.459662] [ohm:150341:0]        ib_iface.c:1059 UCX  ERROR ibv_create_cq(cqe=256) failed: Connection timed out
[1739888533.463569] [ohm:150277:0]        ib_iface.c:1059 UCX  ERROR ibv_create_cq(cqe=256) failed: Connection timed out
[1739888533.464301] [ohm:150354:0]        ib_iface.c:1059 UCX  ERROR ibv_create_cq(cqe=256) failed: Connection timed out
[1739888533.470283] [ohm:150278:0]        ib_iface.c:1059 UCX  ERROR ibv_create_cq(cqe=256) failed: Connection timed out
[1739888533.470488] [ohm:150380:0]        ib_iface.c:1059 UCX  ERROR ibv_create_cq(cqe=256) failed: Connection timed out
[1739888533.472457] [ohm:150368:0]        ib_iface.c:1059 UCX  ERROR ibv_create_cq(cqe=256) failed: Connection timed out
[1739888533.476876] [ohm:150366:0]        ib_iface.c:1059 UCX  ERROR ibv_create_cq(cqe=256) failed: Connection timed out
[1739888533.477202] [ohm:150356:0]        ib_iface.c:1059 UCX  ERROR ibv_create_cq(cqe=256) failed: Connection timed out
[1739888533.478543] [ohm:150282:0]        ib_iface.c:1059 UCX  ERROR ibv_create_cq(cqe=256) failed: Connection timed out
[1739888533.480208] [ohm:150394:0]        ib_iface.c:1059 UCX  ERROR ibv_create_cq(cqe=256) failed: Connection timed out
[1739888533.480234] [ohm:150311:0]        ib_iface.c:1059 UCX  ERROR ibv_create_cq(cqe=256) failed: Connection timed out
[1739888533.480608] [ohm:150378:0]        ib_iface.c:1059 UCX  ERROR ibv_create_cq(cqe=256) failed: Connection timed out
[1739888533.481612] [ohm:150344:0]        ib_iface.c:1059 UCX  ERROR ibv_create_cq(cqe=256) failed: Connection timed out
[1739888533.482962] [ohm:150374:0]        ib_iface.c:1059 UCX  ERROR ibv_create_cq(cqe=256) failed: Connection timed out
[1739888533.483329] [ohm:150269:0]        ib_iface.c:1059 UCX  ERROR ibv_create_cq(cqe=256) failed: Connection timed out
[1739888533.483707] [ohm:150330:0]        ib_iface.c:1059 UCX  ERROR ibv_create_cq(cqe=256) failed: Connection timed out

--------------------------------
SUGGESTED CITATIONS FOR THIS RUN
--------------------------------

Below you find a list of papers that are relevant to this ORCA run
We neither can nor want to force you to cite these papers, but we appreciate if you do
You receive ORCA, which is the product of decades of hard work by many enthusiastic individuals, for free
The only thing we kindly ask in return is that you cite our papers,
We deeply appreciate it, if you show your appreciation for ORCA by not just citing the generic ORCA reference.

Please note that relegating all ORCA citations to the supporting information does *not* help us.
SI sections are not indexed - citations you put there will not count into any citation statistics
But we need these citations in order to attract the funding resources that allow us to do what we are doing

Therefore, if you are a happy ORCA user, please consider citing a few of the papers listed below in the main body of your paper

In addition to the list printed below, the program has created the file orca.bibtex that contains the list in bibtex format
You can import this file easily into all common literature databanks and citation aid programs


List of essential papers. We consider these as the minimum necessary citations

  1. Neese,F.
     Software update: the ORCA program system, version 5.0
     WIRES Comput. Molec. Sci., 2022 12(1)e1606
     doi.org/10.1002/wcms.1606

List of papers to cite with high priority. The work reported in these papers was absolutely
necessary for this run to complete.
Our perspective: the developers of density functionals and basis sets usually get cited in chemistry papers
Good! But without the algorithms to do something with them, the functionals or basis sets would not do anything.
Hence, in our opinion, the algorithm design and method developments papers are equally worthy of getting cited

  1. Neese,F.; Olbrich,G.
     Efficient use of the resolution of the identity approximation in time-dependent density functional calculations with hybrid density functionals
     Chem. Phys. Lett., 2002 362 170-178
     doi.org/10.1016/s0009-2614(02)01053-9
  2. Neese,F.
     An improvement of the resolution of the identity approximation for the formation of the Coulomb matrix
     J. Comp. Chem., 2003 24(14)1740-1747
     doi.org/10.1002/jcc.10318
  3. Neese,F.; Wennmohs,F.; Hansen,A.; Becker,U.
     Efficient, approximate and parallel Hartree-Fock and hybrid DFT calculations. A 'chain-of-spheres' algorithm for the Hartree-Fock exchange
     Chem. Phys., 2009 356(1-3)98-109
     doi.org/10.1016/j.chemphys.2008.10.036
  4. Petrenko,T.; Kossmann,S.; Neese,F.
     Efficient time-dependent density functional theory approximations for hybrid density functionals: Analytical gradients and parallelization
     J. Chem. Phys., 2011 134 054116
     doi.org/10.1063/1.3533441
  5. Helmich-Paris,B.; de Souza,B.; Neese,F.; Izsák,R.
     An improved chain of spheres for exchange algorithm
     J. Chem. Phys., 2021 155 104109
     doi.org/doi: 10.1063/5.0058766.
  6. Neese,F.
     The SHARK Integral Generation and Digestion System
     J. Comp. Chem., 2022  1-16
     doi.org/10.1002/jcc.26942
  7. Lehtola,S.; Steigemann,C.; Oliveira,M.; Marques,M.
     Recent developments in Libxc - A comprehensive library of functionals for density functional theory
     Software X, 2018 7 
     doi.org/10.1016/j.softx.2017.11.002
  8. Grimme,S.; Antony,J.; Ehrlich,S.; Krieg,H.
     A consistent and accurate ab initio parametrization of density functional dispersion correction (DFT-D) for the 94 elements H-Pu
     J. Chem. Phys., 2010 132 154104-XXXX
     doi.org/10.1063/1.3382344
  9. Grimme,S.; Ehrlich,S.; Goerigk,L.
     Effect of the damping function in dispersion corrected density functional theory
     J. Comput. Chem., 2011 32(7)1456-1465
     doi.org/10.1002/jcc.21759

List of suggested additional citations. These are papers that are important in the 'surrounding' of 
of this run, or papers that preceded the highly important papers. If you like your results we are grateful for a citation.

  1. Izsak,R.; Neese,F.
     An overlap fitted chain of spheres exchange method
     J. Chem. Phys., 2011 135 144105
     doi.org/10.1063/1.3646921
  2. Izsak,R.; Hansen,A.; Neese,F.
     The resolution of identity and chain of spheres approximations for the LPNO-CCSD singles Fock term
     Molec. Phys., 2012 110 2413-2417
     doi.org/10.1080/00268976.2012.687466
  3. Neese,F.
     The ORCA program system
     WIRES Comput. Molec. Sci., 2012 2(1)73-78
     doi.org/10.1002/wcms.81
  4. Izsak,R.; Neese,F.; Klopper,W.
     Robust fitting techniques in the chain of spheres approximation to the Fock exchange: The role of the complementary space
     J. Chem. Phys., 2013 139 
     doi.org/10.1063/1.4819264
  5. Neese,F.
     Software update: the ORCA program system, version 4.0
     WIRES Comput. Molec. Sci., 2018 8(1)1-6
     doi.org/10.1002/wcms.1327
  6. Neese,F.; Wennmohs,F.; Becker,U.; Riplinger,C.
     The ORCA quantum chemistry program package
     J. Chem. Phys., 2020 152 Art. No. L224108
     doi.org/10.1063/5.0004608

List of optional additional citations

  1. Neese,F.
     Approximate second-order SCF convergence for spin unrestricted wavefunctions
     Chem. Phys. Lett., 2000 325(1-3)93-98
     doi.org/10.1016/s0009-2614(00)00662-x

Timings for individual modules:

Sum of individual times          ...      273.088 sec (=   4.551 min)
Startup calculation              ...        6.401 sec (=   0.107 min)   2.3 %
SCF iterations                   ...      125.691 sec (=   2.095 min)  46.0 %
Property integrals               ...        4.438 sec (=   0.074 min)   1.6 %
Property calculations            ...        2.982 sec (=   0.050 min)   1.1 %
CIS module                       ...      133.576 sec (=   2.226 min)  48.9 %
                             ****ORCA TERMINATED NORMALLY****
TOTAL RUN TIME: 0 days 0 hours 4 minutes 35 seconds 267 msec
