30
Properties=species:S:1:pos:R:3:momenta:R:3:forces:R:3 Coordinates=T from=T ORCA-job=T orca=T E=T -908.929076301761=T energy=-24729.299526071856 free_energy=-24729.299526071856 stress="-1.1403818539237174e-06 -8.808116185865692e-07 1.2748657829814968e-07 -8.808116185865692e-07 -1.3944062999258943e-06 8.310166226310003e-07 1.2748657829814968e-07 8.310166226310003e-07 -7.650715925184419e-07" pbc="F F F"
O        2.93566334       1.25264588      -0.48900982       0.33264860       0.39819469       0.03694500       0.36491755       0.48506730      -0.18184784
O       -0.52792682       0.42688911      -1.87901524      -0.10287233      -0.01187527      -0.04146345      -0.05097926       0.01740458      -0.09222680
O        1.40537721      -2.83694797      -1.77105731      -0.20863227      -0.05214070       0.21155730      -0.03304749      -0.07320260      -0.02716425
O       -3.13217662      -1.37083649       1.36715996      -0.00804282       0.03817835      -0.04666595      -0.04970489      -0.08288755       0.07176862
N        0.74076053      -1.99618445       0.23504341       0.00995025       0.18659725      -0.08197608      -0.15130157      -0.10080551       0.10375874
N       -2.33168007       0.74199073       1.65801533      -0.11287159       0.10629062       0.09659816       0.06966630       0.13595333      -0.33198059
N        2.19856550      -0.81032236      -1.08696879       0.10367818      -0.30830534      -0.11156834       0.16347941      -0.21148045      -0.28361733
N       -1.93085163      -0.38888668      -0.30259174      -0.10956958      -0.07579006       0.01460431      -0.06963759      -0.02410204      -0.13213206
C        1.44733406       0.16162349       0.98685473       0.79939377       1.01088660      -0.41419459       1.80562821       1.48975710      -0.93628063
C       -0.90550860       1.76762067       0.04688617      -0.02978415       0.09742160       0.05627952      -0.13416003       0.21012358      -0.36304583
C        0.75324919      -1.00602427       1.17608058      -0.64093103      -1.22250645       0.64118315      -1.47024595      -1.89346410       0.79672192
C       -1.58130130       1.80632960       1.19888671      -0.08719631       0.05891423      -0.05476466       0.06029238      -0.36453918       0.15361455
C        1.55752653       1.20947980       2.03640495      -0.07970190      -0.01689234      -0.16902487      -0.00056734      -0.22916460      -0.13828590
C       -0.09776976       2.90869146      -0.48585109      -0.10064687       0.05401452      -0.05766248       0.05675926      -0.11531038       0.10487118
C        2.24242108       0.28076763      -0.22119334      -0.26869536      -0.11021892       0.43802072      -0.63196178       0.12876770       0.89358544
C       -1.06824894       0.58944961      -0.80781249       0.07713406       0.05608854      -0.04884855      -0.03680573      -0.11412895       0.04728909
C        1.44557118      -1.94900501      -0.95355483       0.16862499       0.10691921      -0.09267272       0.09698551       0.11671979      -0.04248875
C       -2.51738803      -0.42073646       0.94214533      -0.02738049      -0.23557507      -0.01245918       0.11854303       0.06466242      -0.08520173
H        0.17545320      -1.18847808       2.05489626       0.01309112      -0.05997634      -0.02321016      -0.09638218      -0.07781612       0.22431979
H       -1.54008128       2.65601372       1.85661328       0.04034682       0.00072986      -0.04292271      -0.02757014       0.10188638       0.07204034
H        1.36830153       2.19139061       1.61364719       0.00584312      -0.00802411      -0.07009124       0.07517866       0.03636027       0.01024479
H        0.86411061       1.02077742       2.85524941       0.02816495      -0.04504264      -0.00996389       0.04299806       0.00461265      -0.05920568
H        2.57775800       1.23271691       2.42902131       0.06453259       0.01988686      -0.07363109      -0.03941357      -0.00745468       0.01330220
H       -0.49133152       3.23031278      -1.43996047       0.04909962      -0.03171260       0.00946225      -0.08336335       0.07654244      -0.17793773
H       -0.11182747       3.74692431       0.20115320       0.04653542       0.01725517      -0.04754768      -0.04691786       0.09222392       0.07794598
H        0.93804943       2.62318872      -0.65537896       0.03827466       0.04307305      -0.01375356       0.03359268      -0.06820558      -0.00327087
H        0.18996978      -2.83650964       0.37897145       0.01794955      -0.03696570      -0.03058577       0.15799393       0.25686061      -0.03791852
H       -2.78155490       0.77772917       2.54404122       0.04610283      -0.01154075      -0.03460809      -0.14292453       0.00149487       0.28030360
H        2.68451423      -0.70269921      -1.95961393      -0.06767000       0.07271945       0.01500272      -0.00865115       0.00459599      -0.06039617
H       -2.04575886      -1.22156304      -0.86837282       0.00262417      -0.04060374      -0.04203808       0.02759943       0.13952882       0.10323444
