
                                 *****************
                                 * O   R   C   A *
                                 *****************

                                            #,                                       
                                            ###                                      
                                            ####                                     
                                            #####                                    
                                            ######                                   
                                           ########,                                 
                                     ,,################,,,,,                         
                               ,,#################################,,                 
                          ,,##########################################,,             
                       ,#########################################, ''#####,          
                    ,#############################################,,   '####,        
                  ,##################################################,,,,####,       
                ,###########''''           ''''###############################       
              ,#####''   ,,,,##########,,,,          '''####'''          '####       
            ,##' ,,,,###########################,,,                        '##       
           ' ,,###''''                  '''############,,,                           
         ,,##''                                '''############,,,,        ,,,,,,###''
      ,#''                                            '''#######################'''  
     '                                                          ''''####''''         
             ,#######,   #######,   ,#######,      ##                                
            ,#'     '#,  ##    ##  ,#'     '#,    #''#        ,####,   ,####,        
            ##       ##  ##   ,#'  ##            #'  '#       #'       #'  '#        
            ##       ##  #######   ##           ,######,      #####,   #    #        
            '#,     ,#'  ##    ##  '#,     ,#' ,#      #,     #,   #   #,  ,#        
             '#######'   ##     ##  '#######'  #'      '#     '####' # '####'        



                #########################################################
                #                        -***-                          #
                #          Department of theory and spectroscopy        #
                #                                                       #
                #                      Frank Neese                      #
                #                                                       #
                #     Directorship, Architecture, Infrastructure        #
                #                    SHARK, DRIVERS                     #
                #        Core code/Algorithms in most modules           #
                #                                                       #
                #        Max Planck Institute fuer Kohlenforschung      #
                #                Kaiser Wilhelm Platz 1                 #
                #                 D-45470 Muelheim/Ruhr                 #
                #                      Germany                          #
                #                                                       #
                #                  All rights reserved                  #
                #                        -***-                          #
                #########################################################


                         Program Version 6.0.0  -   RELEASE  -


 With contributions from (in alphabetic order):
   Daniel Aravena         : Magnetic Suceptibility
   Michael Atanasov       : Ab Initio Ligand Field Theory (pilot matlab implementation)
   Alexander A. Auer      : GIAO ZORA, VPT2 properties, NMR spectrum
   Ute Becker             : All parallelization in ORCA, NUMFREQ, NUMCALC
   Giovanni Bistoni       : ED, misc. LED, open-shell LED, HFLD
   Martin Brehm           : Molecular dynamics
   Dmytro Bykov           : pre 5.0 version of the SCF Hessian
   Marcos Casanova-Páez   : Triplet and SCS-CIS(D). UHF-(DLPNO)-IP/EA/STEOM-CCSD. UHF-CVS-IP/STEOM-CCSD
   Vijay G. Chilkuri      : MRCI spin determinant printing, contributions to CSF-ICE
   Pauline Colinet        : FMM embedding
   Dipayan Datta          : RHF DLPNO-CCSD density
   Achintya Kumar Dutta   : EOM-CC, STEOM-CC
   Nicolas Foglia         : Exact transition moments, OPA infrastructure, MCD improvements
   Dmitry Ganyushin       : Spin-Orbit,Spin-Spin,Magnetic field MRCI
   Miquel Garcia          : C-PCM and meta-GGA Hessian, CCSD/C-PCM, Gaussian charge scheme
   Tiago L. C. Gouveia    : GS-ROHF, GS-ROCIS
   Yang Guo               : DLPNO-NEVPT2, F12-NEVPT2, CIM, IAO-localization
   Andreas Hansen         : Spin unrestricted coupled pair/coupled cluster methods
   Ingolf Harden          : AUTO-CI MPn and infrastructure 
   Benjamin Helmich-Paris : MC-RPA, TRAH-(SCF,CASSCF), AVAS, COSX integrals, SCF dyn. polar.
   Lee Huntington         : MR-EOM, pCC
   Robert Izsak           : Overlap fitted RIJCOSX, COSX-SCS-MP3, EOM
   Riya Kayal             : Wick's Theorem for AUTO-CI, AUTO-CI UHF-CCSDT
   Emily Kempfer          : AUTO-CI, RHF CISDT and CCSDT
   Christian Kollmar      : KDIIS, OOCD, Brueckner-CCSD(T), CCSD density, CASPT2, CASPT2-K, improved NEVPT2
   Axel Koslowski         : Symmetry handling
   Simone Kossmann        : Meta GGA functionals, TD-DFT gradient, OOMP2, (MP2 Hessian; deprecated post 5.0)
   Lucas Lang             : DCDCAS
   Marvin Lechner         : AUTO-CI (C++ implementation), FIC-MRCC
   Spencer Leger          : CASSCF response
   Dagmar Lenk            : GEPOL surface, SMD, ORCA-2-JSON
   Dimitrios Liakos       : Extrapolation schemes; Compound Job, initial MDCI parallelization
   Dimitrios Manganas     : Further ROCIS development; embedding schemes. LFT, Crystal Embedding
   Dimitrios Pantazis     : SARC Basis sets
   Anastasios Papadopoulos: AUTO-CI, single reference methods and gradients
   Taras Petrenko         : pre 6.0 DFT Hessian and TD-DFT gradient, (ASA, deprecated), ECA, 1-Electron XAS/XES, NRVS
   Peter Pinski           : DLPNO-MP2, DLPNO-MP2 Gradient
   Christoph Reimann      : Effective Core Potentials
   Marius Retegan         : Local ZFS, SOC
   Christoph Riplinger    : Optimizer, TS searches, QM/MM, DLPNO-CCSD(T), (RO)-DLPNO pert. Triples
   Michael Roemelt        : Original ROCIS implementation
   Masaaki Saitow         : Open-shell DLPNO-CCSD energy and density
   Barbara Sandhoefer     : DKH picture change effects
   Kantharuban Sivalingam : CASSCF convergence/infrastructure, NEVPT2 and variants, FIC-MRCI
   Bernardo de Souza      : ESD, SOC TD-DFT
   Georgi Stoychev        : AutoAux, RI-MP2 NMR, DLPNO-MP2 response, X2C
   Van Anh Tran           : RI-MP2 g-tensors
   Willem Van den Heuvel  : Paramagnetic NMR
   Zikuan Wang            : NOTCH, Electric field optimization 
   Frank Wennmohs         : Technical directorship and infrastructure
   Hang Xu                : AUTO-CI-Response properties 


 We gratefully acknowledge several colleagues who have allowed us to
 interface, adapt or use parts of their codes:
   Stefan Grimme, W. Hujo, H. Kruse, P. Pracht,  : VdW corrections, initial TS optimization,
                  C. Bannwarth, S. Ehlert,         DFT functionals, gCP, sTDA/sTD-DF
                  L. Wittmann, M. Mueller
   Ed Valeev, F. Pavosevic, A. Kumar             : LibInt (2-el integral package), F12 methods
   Garnet Chan, S. Sharma, J. Yang, R. Olivares  : DMRG
   Ulf Ekstrom                                   : XCFun DFT Library
   Mihaly Kallay                                 : mrcc  (arbitrary order and MRCC methods)
   Frank Weinhold                                : gennbo (NPA and NBO analysis)
   Simon Mueller                                 : openCOSMO-RS
   Christopher J. Cramer and Donald G. Truhlar   : smd solvation model
   Lars Goerigk                                  : TD-DFT with DH, B97 family of functionals
   V. Asgeirsson, H. Jonsson                     : NEB implementation
   FAccTs GmbH                                   : IRC, NEB, NEB-TS, DLPNO-Multilevel, CI-OPT
                                                   MM, QMMM, 2- and 3-layer-ONIOM, Crystal-QMMM,
                                                   LR-CPCM, SF, NACMEs, symmetry and pop. for TD-DFT,
                                                   nearIR, NL-DFT gradient (VV10), updates on ESD,
                                                   ML-optimized integration grids, MBIS, APM,
                                                   GOAT, DOCKER, SOLVATOR, interface openCOSMO-RS
   S Lehtola, MJT Oliveira, MAL Marques          : LibXC Library
   Liviu Ungur et al                             : ANISO software


 Your calculation uses the libint2 library for the computation of 2-el integrals
 For citations please refer to: http://libint.valeyev.net

 Your ORCA version has been built with support for libXC version: 6.2.2
 For citations please refer to: https://libxc.gitlab.io

 This ORCA versions uses:
   CBLAS   interface :  Fast vector & matrix operations
   LAPACKE interface :  Fast linear algebra routines
   SCALAPACK package :  Parallel linear algebra routines
   Shared memory     :  Shared parallel matrices
   BLAS/LAPACK       :  OpenBLAS 0.3.27  USE64BITINT DYNAMIC_ARCH NO_AFFINITY Zen SINGLE_THREADED
        Core in use  :  Zen
   Copyright (c) 2011-2014, The OpenBLAS Project


Your calculation utilizes the atom-pairwise dispersion correction
with the Becke-Johnson damping scheme (D3BJ)


Warning: RI is on but no J-basis has been assigned. Assigning Def2/J (nothing to worry about!)
================================================================================

----- Orbital basis set information -----
Your calculation utilizes the basis: def2-TZVPPD
   F. Weigend and R. Ahlrichs, Phys. Chem. Chem. Phys. 7, 3297 (2005).
   D. Rappoport and F. Furche, J. Chem. Phys. 133, 134105 (2010)
   D. Rappoport, J. Chem. Phys. 155, 124102 (2021).

----- AuxJ basis set information -----
Your calculation utilizes the auxiliary basis: def2/J
   F. Weigend, Phys. Chem. Chem. Phys. 8, 1057 (2006).

================================================================================
                                        WARNINGS
                       Please study these warnings very carefully!
================================================================================

Using LibXC functional ID 531 : wB97M-V exchange-correlation functional
[ 1]  N. Mardirossian and M. Head-Gordon.,  J. Chem. Phys. 144, 214110 (2016)
Using LibXC functional ID 531 : wB97M-V exchange-correlation functional
[ 1]  N. Mardirossian and M. Head-Gordon.,  J. Chem. Phys. 144, 214110 (2016)

WARNING: B97M-V or wB97M-V functional requested.
  ===> : libXC variant has now been activated.
         Any manually given DFX/HFX/RangeSep scaling parameters are IGNORED!

Your calculation utilizes LibXC
 by S Lehtola, C Steigemann, MJT Oliveira & MAL Marques
Please cite in your paper:
 S Lehtola, C Steigemann, MJT Oliveira & MAL Marques, SoftwareX, 7, (2018), 1.
   


WARNING: your system is open-shell and RHF/RKS was chosen
  ===> : WILL SWITCH to UHF/UKS

INFO   : Checking CIS options ...

WARNING: CIS/ROCIS methods need fully converged wavefunctions
  ===> : Setting SCFConvForced true
         You can overwrite this default with %scf ConvForced false 


================================================================================
                                       INPUT FILE
================================================================================
NAME = orca.inp
|  1> ! Engrad def2-TZVPPD wB97M-D3BJ 
|  2> %pal nprocs 8 end%pal nprocs 64 end 
|  3> %tddft 
|  4>  Iroot 1 Nroots 3 
|  5> sf true 
|  6> end 
|  7> *xyz 0 3 
|  8> O   3.15226043 -0.59227545 -2.03937394
|  9> O   -2.28107477 1.54564914 -1.47735617
| 10> O   -1.02747512 -2.05713384 -1.48915917
| 11> O   -2.88649365 0.28935691 2.72223501
| 12> N   0.02668617 -1.55097151 0.40776483
| 13> N   -0.72565331 0.63697617 2.06134241
| 14> N   1.13359691 -1.5920739 -1.69510117
| 15> N   -2.54280753 0.72662616 0.60238012
| 16> C   2.21968671 -0.56810922 0.17306006
| 17> C   -0.32602589 1.33528733 -0.22150924
| 18> C   0.96796278 -0.62691902 0.9165436
| 19> C   0.2449569 0.8331068 1.02979781
| 20> C   3.43050193 -0.0315205 0.78132076
| 21> C   0.43348941 1.76676868 -1.38948471
| 22> C   2.23335973 -0.9014376 -1.26464716
| 23> C   -1.74603244 1.25731651 -0.36318296
| 24> C   -0.01621807 -1.79409385 -0.91110769
| 25> C   -2.09101888 0.54836616 1.89282423
| 26> H   1.18666811 -0.92907793 1.94634591
| 27> H   0.96182588 1.473107 1.43061875
| 28> H   3.16266095 0.70417987 1.67128634
| 29> H   4.125389 -0.74363297 1.30226966
| 30> H   4.11415662 0.56044887 0.11308451
| 31> H   0.32765454 1.10717438 -2.24690262
| 32> H   0.34154264 2.84878813 -1.59899674
| 33> H   1.56932374 1.65177688 -1.11199944
| 34> H   -0.82966349 -1.57021531 0.83702604
| 35> H   -0.45471208 0.05268178 2.88722472
| 36> H   1.02553203 -1.58041642 -2.69121132
| 37> H   -3.54013018 0.87626251 0.48259627
| 38> *
| 39> 
| 40>                          ****END OF INPUT****
================================================================================

                     *******************************
                     * Energy+Gradient Calculation *
                     *******************************

---------------------------------
CARTESIAN COORDINATES (ANGSTROEM)
---------------------------------
  O      3.152260   -0.592275   -2.039374
  O     -2.281075    1.545649   -1.477356
  O     -1.027475   -2.057134   -1.489159
  O     -2.886494    0.289357    2.722235
  N      0.026686   -1.550972    0.407765
  N     -0.725653    0.636976    2.061342
  N      1.133597   -1.592074   -1.695101
  N     -2.542808    0.726626    0.602380
  C      2.219687   -0.568109    0.173060
  C     -0.326026    1.335287   -0.221509
  C      0.967963   -0.626919    0.916544
  C      0.244957    0.833107    1.029798
  C      3.430502   -0.031520    0.781321
  C      0.433489    1.766769   -1.389485
  C      2.233360   -0.901438   -1.264647
  C     -1.746032    1.257317   -0.363183
  C     -0.016218   -1.794094   -0.911108
  C     -2.091019    0.548366    1.892824
  H      1.186668   -0.929078    1.946346
  H      0.961826    1.473107    1.430619
  H      3.162661    0.704180    1.671286
  H      4.125389   -0.743633    1.302270
  H      4.114157    0.560449    0.113085
  H      0.327655    1.107174   -2.246903
  H      0.341543    2.848788   -1.598997
  H      1.569324    1.651777   -1.111999
  H     -0.829663   -1.570215    0.837026
  H     -0.454712    0.052682    2.887225
  H      1.025532   -1.580416   -2.691211
  H     -3.540130    0.876263    0.482596

----------------------------
CARTESIAN COORDINATES (A.U.)
----------------------------
  NO LB      ZA    FRAG     MASS         X           Y           Z
   0 O     8.0000    0    15.999    5.956909   -1.119238   -3.853858
   1 O     8.0000    0    15.999   -4.310607    2.920854   -2.791799
   2 O     8.0000    0    15.999   -1.941647   -3.887420   -2.814103
   3 O     8.0000    0    15.999   -5.454682    0.546805    5.144279
   4 N     7.0000    0    14.007    0.050430   -2.930911    0.770564
   5 N     7.0000    0    14.007   -1.371286    1.203711    3.895373
   6 N     7.0000    0    14.007    2.142188   -3.008584   -3.203277
   7 N     7.0000    0    14.007   -4.805210    1.373124    1.138333
   8 C     6.0000    0    12.011    4.194600   -1.073571    0.327036
   9 C     6.0000    0    12.011   -0.616100    2.523327   -0.418592
  10 C     6.0000    0    12.011    1.829185   -1.184705    1.732016
  11 C     6.0000    0    12.011    0.462901    1.574344    1.946036
  12 C     6.0000    0    12.011    6.482709   -0.059565    1.476482
  13 C     6.0000    0    12.011    0.819176    3.338709   -2.625746
  14 C     6.0000    0    12.011    4.220438   -1.703470   -2.389837
  15 C     6.0000    0    12.011   -3.299523    2.375984   -0.686316
  16 C     6.0000    0    12.011   -0.030648   -3.390346   -1.721744
  17 C     6.0000    0    12.011   -3.951453    1.036262    3.576919
  18 H     1.0000    0     1.008    2.242478   -1.755703    3.678061
  19 H     1.0000    0     1.008    1.817588    2.783769    2.703478
  20 H     1.0000    0     1.008    5.976563    1.330707    3.158273
  21 H     1.0000    0     1.008    7.795855   -1.405263    2.460933
  22 H     1.0000    0     1.008    7.774629    1.059095    0.213699
  23 H     1.0000    0     1.008    0.619177    2.092256   -4.246031
  24 H     1.0000    0     1.008    0.645422    5.383429   -3.021666
  25 H     1.0000    0     1.008    2.965592    3.121406   -2.101374
  26 H     1.0000    0     1.008   -1.567837   -2.967277    1.581750
  27 H     1.0000    0     1.008   -0.859281    0.099554    5.456064
  28 H     1.0000    0     1.008    1.937975   -2.986554   -5.085652
  29 H     1.0000    0     1.008   -6.689877    1.655896    0.911975

--------------------------------
INTERNAL COORDINATES (ANGSTROEM)
--------------------------------
 O      0   0   0     0.000000000000     0.00000000     0.00000000
 O      1   0   0     5.865809144686     0.00000000     0.00000000
 O      2   1   0     3.814668608709    49.53968042     0.00000000
 O      2   1   3     4.425083984124    96.55654148    67.08345369
 N      3   2   1     2.228402340562    86.46261598    65.58700324
 N      4   2   1     2.286230336958    63.45995421    26.30608669
 N      3   2   1     2.220118279283    97.02676422     1.74097439
 N      4   2   1     2.191599712706     5.07889260   305.82617672
 C      7   3   2     2.391259312753   117.34465014    69.14999130
 C      2   1   3     2.333156601235    40.75998137   105.48994729
 C      5   3   2     1.413764654252   140.33270132   303.55203373
 C      6   4   2     1.429907572387   150.57035499   346.42156755
 C      9   7   3     1.457388771255   149.43715620   179.02093630
 C     10   2   1     1.458494547420    88.77623399    44.26548498
 C      1   2   3     1.241032358604    49.09114274   316.19258259
 C      2   1   3     1.269168208827    67.09664039    81.97543141
 C      3   2   1     1.194141688010    93.94268590    36.12304538
 C      4   2   1     1.178044202597    34.61531295    23.17295782
 H     11   5   3     1.095273858879   106.91750011   185.22758433
 H     12   6   4     1.041229473473   105.89887450   146.55512835
 H     13   9   7     1.185340693037   110.74131492   159.27819551
 H     13   9   7     1.123102829840   118.30615018   274.66623155
 H     13   9   7     1.124433704578   116.80360409    39.34412105
 H     14  10   2     1.086936581724   113.67051929   298.92722350
 H     14  10   2     1.105945563491   113.44395250    74.09596398
 H     14  10   2     1.174879063709   106.58004686   186.44864435
 H      5   3   2     0.958107640316    87.36392075    73.75133677
 H      6   4   2     1.047325486308    86.08529549   199.59075529
 H      7   3   2     1.002022627520    89.40829309   272.43067694
 H      8   4  18     1.015574554705    89.39735346   194.46601525

---------------------------
INTERNAL COORDINATES (A.U.)
---------------------------
 O      0   0   0     0.000000000000     0.00000000     0.00000000
 O      1   0   0    11.084772837307     0.00000000     0.00000000
 O      2   1   0     7.208678962126    49.53968042     0.00000000
 O      2   1   3     8.362196849596    96.55654148    67.08345369
 N      3   2   1     4.211070139851    86.46261598    65.58700324
 N      4   2   1     4.320349215914    63.45995421    26.30608669
 N      3   2   1     4.195415532757    97.02676422     1.74097439
 N      4   2   1     4.141523252195     5.07889260   305.82617672
 C      7   3   2     4.518825216291   117.34465014    69.14999130
 C      2   1   3     4.409027003885    40.75998137   105.48994729
 C      5   3   2     2.671628014353   140.33270132   303.55203373
 C      6   4   2     2.702133708632   150.57035499   346.42156755
 C      9   7   3     2.754065648323   149.43715620   179.02093630
 C     10   2   1     2.756155262441    88.77623399    44.26548498
 C      1   2   3     2.345211281096    49.09114274   316.19258259
 C      2   1   3     2.398380332562    67.09664039    81.97543141
 C      3   2   1     2.256600755438    93.94268590    36.12304538
 C      4   2   1     2.226180916562    34.61531295    23.17295782
 H     11   5   3     2.069767634925   106.91750011   185.22758433
 H     12   6   4     1.967638547431   105.89887450   146.55512835
 H     13   9   7     2.239969285233   110.74131492   159.27819551
 H     13   9   7     2.122356768629   118.30615018   274.66623155
 H     13   9   7     2.124871757403   116.80360409    39.34412105
 H     14  10   2     2.054012464398   113.67051929   298.92722350
 H     14  10   2     2.089934234024   113.44395250    74.09596398
 H     14  10   2     2.220199670887   106.58004686   186.44864435
 H      5   3   2     1.810561047014    87.36392075    73.75133677
 H      6   4   2     1.979158342198    86.08529549   199.59075529
 H      7   3   2     1.893548346005    89.40829309   272.43067694
 H      8   4  18     1.919157776972    89.39735346   194.46601525

---------------------
BASIS SET INFORMATION
---------------------
There are 4 groups of distinct atoms

 Group   1 Type O   : 12s7p3d1f contracted to 6s4p3d1f pattern {621111/4111/111/1}
 Group   2 Type N   : 12s6p3d1f contracted to 6s3p3d1f pattern {621111/411/111/1}
 Group   3 Type C   : 12s6p3d1f contracted to 6s3p3d1f pattern {621111/411/111/1}
 Group   4 Type H   : 5s3p1d contracted to 3s3p1d pattern {311/111/1}

Atom   0O    basis set group =>   1
Atom   1O    basis set group =>   1
Atom   2O    basis set group =>   1
Atom   3O    basis set group =>   1
Atom   4N    basis set group =>   2
Atom   5N    basis set group =>   2
Atom   6N    basis set group =>   2
Atom   7N    basis set group =>   2
Atom   8C    basis set group =>   3
Atom   9C    basis set group =>   3
Atom  10C    basis set group =>   3
Atom  11C    basis set group =>   3
Atom  12C    basis set group =>   3
Atom  13C    basis set group =>   3
Atom  14C    basis set group =>   3
Atom  15C    basis set group =>   3
Atom  16C    basis set group =>   3
Atom  17C    basis set group =>   3
Atom  18H    basis set group =>   4
Atom  19H    basis set group =>   4
Atom  20H    basis set group =>   4
Atom  21H    basis set group =>   4
Atom  22H    basis set group =>   4
Atom  23H    basis set group =>   4
Atom  24H    basis set group =>   4
Atom  25H    basis set group =>   4
Atom  26H    basis set group =>   4
Atom  27H    basis set group =>   4
Atom  28H    basis set group =>   4
Atom  29H    basis set group =>   4
---------------------------------
AUXILIARY/J BASIS SET INFORMATION
---------------------------------
There are 4 groups of distinct atoms

 Group   1 Type O   : 12s5p4d2f1g contracted to 6s4p3d1f1g pattern {711111/2111/211/2/1}
 Group   2 Type N   : 12s5p4d2f1g contracted to 6s4p3d1f1g pattern {711111/2111/211/2/1}
 Group   3 Type C   : 12s5p4d2f1g contracted to 6s4p3d1f1g pattern {711111/2111/211/2/1}
 Group   4 Type H   : 5s2p1d contracted to 3s1p1d pattern {311/2/1}

Atom   0O    basis set group =>   1
Atom   1O    basis set group =>   1
Atom   2O    basis set group =>   1
Atom   3O    basis set group =>   1
Atom   4N    basis set group =>   2
Atom   5N    basis set group =>   2
Atom   6N    basis set group =>   2
Atom   7N    basis set group =>   2
Atom   8C    basis set group =>   3
Atom   9C    basis set group =>   3
Atom  10C    basis set group =>   3
Atom  11C    basis set group =>   3
Atom  12C    basis set group =>   3
Atom  13C    basis set group =>   3
Atom  14C    basis set group =>   3
Atom  15C    basis set group =>   3
Atom  16C    basis set group =>   3
Atom  17C    basis set group =>   3
Atom  18H    basis set group =>   4
Atom  19H    basis set group =>   4
Atom  20H    basis set group =>   4
Atom  21H    basis set group =>   4
Atom  22H    basis set group =>   4
Atom  23H    basis set group =>   4
Atom  24H    basis set group =>   4
Atom  25H    basis set group =>   4
Atom  26H    basis set group =>   4
Atom  27H    basis set group =>   4
Atom  28H    basis set group =>   4
Atom  29H    basis set group =>   4
[1741097658.493763] [ohm:757496:0]        ib_iface.c:1059 UCX  ERROR ibv_create_cq(cqe=256) failed: Connection timed out
[1741097658.516991] [ohm:757492:0]        ib_iface.c:1059 UCX  ERROR ibv_create_cq(cqe=256) failed: Connection timed out
[1741097658.518150] [ohm:757494:0]        ib_iface.c:1059 UCX  ERROR ibv_create_cq(cqe=256) failed: Connection timed out
[1741097658.537074] [ohm:757495:0]        ib_iface.c:1059 UCX  ERROR ibv_create_cq(cqe=256) failed: Connection timed out
[1741097658.560086] [ohm:757493:0]        ib_iface.c:1059 UCX  ERROR ibv_create_cq(cqe=256) failed: Connection timed out
[1741097658.563935] [ohm:757506:0]        ib_iface.c:1059 UCX  ERROR ibv_create_cq(cqe=256) failed: Connection timed out
[1741097658.568690] [ohm:757497:0]        ib_iface.c:1059 UCX  ERROR ibv_create_cq(cqe=256) failed: Connection timed out
[1741097658.570695] [ohm:757507:0]        ib_iface.c:1059 UCX  ERROR ibv_create_cq(cqe=256) failed: Connection timed out
[1741097658.571241] [ohm:757509:0]        ib_iface.c:1059 UCX  ERROR ibv_create_cq(cqe=256) failed: Connection timed out
[1741097658.579157] [ohm:757502:0]        ib_iface.c:1059 UCX  ERROR ibv_create_cq(cqe=256) failed: Connection timed out
[1741097658.589027] [ohm:757514:0]        ib_iface.c:1059 UCX  ERROR ibv_create_cq(cqe=256) failed: Connection timed out
[1741097658.603982] [ohm:757562:0]        ib_iface.c:1059 UCX  ERROR ibv_create_cq(cqe=256) failed: Connection timed out
[1741097658.605628] [ohm:757501:0]        ib_iface.c:1059 UCX  ERROR ibv_create_cq(cqe=256) failed: Connection timed out
[1741097658.608343] [ohm:757516:0]        ib_iface.c:1059 UCX  ERROR ibv_create_cq(cqe=256) failed: Connection timed out
[1741097658.608997] [ohm:757503:0]        ib_iface.c:1059 UCX  ERROR ibv_create_cq(cqe=256) failed: Connection timed out
[1741097658.616475] [ohm:757518:0]        ib_iface.c:1059 UCX  ERROR ibv_create_cq(cqe=256) failed: Connection timed out
[1741097658.624454] [ohm:757510:0]        ib_iface.c:1059 UCX  ERROR ibv_create_cq(cqe=256) failed: Connection timed out
[1741097658.645048] [ohm:757605:0]        ib_iface.c:1059 UCX  ERROR ibv_create_cq(cqe=256) failed: Connection timed out
[1741097658.659444] [ohm:757526:0]        ib_iface.c:1059 UCX  ERROR ibv_create_cq(cqe=256) failed: Connection timed out
[1741097658.663602] [ohm:757511:0]        ib_iface.c:1059 UCX  ERROR ibv_create_cq(cqe=256) failed: Connection timed out
[1741097658.663938] [ohm:757615:0]        ib_iface.c:1059 UCX  ERROR ibv_create_cq(cqe=256) failed: Connection timed out
[1741097658.682209] [ohm:757544:0]        ib_iface.c:1059 UCX  ERROR ibv_create_cq(cqe=256) failed: Connection timed out
[1741097658.692453] [ohm:757646:0]        ib_iface.c:1059 UCX  ERROR ibv_create_cq(cqe=256) failed: Connection timed out
[1741097658.701661] [ohm:757612:0]        ib_iface.c:1059 UCX  ERROR ibv_create_cq(cqe=256) failed: Connection timed out
[1741097658.708696] [ohm:757579:0]        ib_iface.c:1059 UCX  ERROR ibv_create_cq(cqe=256) failed: Connection timed out
[1741097658.718549] [ohm:757504:0]        ib_iface.c:1059 UCX  ERROR ibv_create_cq(cqe=256) failed: Connection timed out
[1741097658.724684] [ohm:757519:0]        ib_iface.c:1059 UCX  ERROR ibv_create_cq(cqe=256) failed: Connection timed out
[1741097658.727229] [ohm:757622:0]        ib_iface.c:1059 UCX  ERROR ibv_create_cq(cqe=256) failed: Connection timed out
[1741097658.750779] [ohm:757508:0]        ib_iface.c:1059 UCX  ERROR ibv_create_cq(cqe=256) failed: Connection timed out
[1741097658.762144] [ohm:757505:0]        ib_iface.c:1059 UCX  ERROR ibv_create_cq(cqe=256) failed: Connection timed out
[1741097658.764745] [ohm:757498:0]        ib_iface.c:1059 UCX  ERROR ibv_create_cq(cqe=256) failed: Connection timed out
[1741097658.764824] [ohm:757513:0]        ib_iface.c:1059 UCX  ERROR ibv_create_cq(cqe=256) failed: Connection timed out
[1741097658.771093] [ohm:757602:0]        ib_iface.c:1059 UCX  ERROR ibv_create_cq(cqe=256) failed: Connection timed out
[1741097658.773875] [ohm:757570:0]        ib_iface.c:1059 UCX  ERROR ibv_create_cq(cqe=256) failed: Connection timed out
[1741097658.776653] [ohm:757520:0]        ib_iface.c:1059 UCX  ERROR ibv_create_cq(cqe=256) failed: Connection timed out
[1741097658.782631] [ohm:757639:0]        ib_iface.c:1059 UCX  ERROR ibv_create_cq(cqe=256) failed: Connection timed out
[1741097658.790534] [ohm:757599:0]        ib_iface.c:1059 UCX  ERROR ibv_create_cq(cqe=256) failed: Connection timed out
[1741097658.792131] [ohm:757631:0]        ib_iface.c:1059 UCX  ERROR ibv_create_cq(cqe=256) failed: Connection timed out
[1741097658.792528] [ohm:757512:0]        ib_iface.c:1059 UCX  ERROR ibv_create_cq(cqe=256) failed: Connection timed out
[1741097658.801261] [ohm:757633:0]        ib_iface.c:1059 UCX  ERROR ibv_create_cq(cqe=256) failed: Connection timed out
[1741097658.811509] [ohm:757533:0]        ib_iface.c:1059 UCX  ERROR ibv_create_cq(cqe=256) failed: Connection timed out
[1741097658.813454] [ohm:757558:0]        ib_iface.c:1059 UCX  ERROR ibv_create_cq(cqe=256) failed: Connection timed out
[1741097658.814477] [ohm:757550:0]        ib_iface.c:1059 UCX  ERROR ibv_create_cq(cqe=256) failed: Connection timed out
[1741097658.823285] [ohm:757596:0]        ib_iface.c:1059 UCX  ERROR ibv_create_cq(cqe=256) failed: Connection timed out
[1741097658.825905] [ohm:757555:0]        ib_iface.c:1059 UCX  ERROR ibv_create_cq(cqe=256) failed: Connection timed out
[1741097658.831465] [ohm:757499:0]        ib_iface.c:1059 UCX  ERROR ibv_create_cq(cqe=256) failed: Connection timed out
[1741097658.834492] [ohm:757589:0]        ib_iface.c:1059 UCX  ERROR ibv_create_cq(cqe=256) failed: Connection timed out
[1741097658.834593] [ohm:757517:0]        ib_iface.c:1059 UCX  ERROR ibv_create_cq(cqe=256) failed: Connection timed out
[1741097658.835478] [ohm:757500:0]        ib_iface.c:1059 UCX  ERROR ibv_create_cq(cqe=256) failed: Connection timed out
[1741097658.836615] [ohm:757522:0]        ib_iface.c:1059 UCX  ERROR ibv_create_cq(cqe=256) failed: Connection timed out
[1741097658.836656] [ohm:757608:0]        ib_iface.c:1059 UCX  ERROR ibv_create_cq(cqe=256) failed: Connection timed out
[1741097658.837467] [ohm:757531:0]        ib_iface.c:1059 UCX  ERROR ibv_create_cq(cqe=256) failed: Connection timed out
[1741097658.837701] [ohm:757637:0]        ib_iface.c:1059 UCX  ERROR ibv_create_cq(cqe=256) failed: Connection timed out
[1741097658.838464] [ohm:757573:0]        ib_iface.c:1059 UCX  ERROR ibv_create_cq(cqe=256) failed: Connection timed out
[1741097658.839229] [ohm:757539:0]        ib_iface.c:1059 UCX  ERROR ibv_create_cq(cqe=256) failed: Connection timed out
[1741097658.841757] [ohm:757627:0]        ib_iface.c:1059 UCX  ERROR ibv_create_cq(cqe=256) failed: Connection timed out
[1741097658.845324] [ohm:757577:0]        ib_iface.c:1059 UCX  ERROR ibv_create_cq(cqe=256) failed: Connection timed out
[1741097658.847245] [ohm:757629:0]        ib_iface.c:1059 UCX  ERROR ibv_create_cq(cqe=256) failed: Connection timed out
[1741097658.848876] [ohm:757548:0]        ib_iface.c:1059 UCX  ERROR ibv_create_cq(cqe=256) failed: Connection timed out
[1741097658.849551] [ohm:757524:0]        ib_iface.c:1059 UCX  ERROR ibv_create_cq(cqe=256) failed: Connection timed out
[1741097658.850244] [ohm:757620:0]        ib_iface.c:1059 UCX  ERROR ibv_create_cq(cqe=256) failed: Connection timed out
[1741097658.850368] [ohm:757643:0]        ib_iface.c:1059 UCX  ERROR ibv_create_cq(cqe=256) failed: Connection timed out
[1741097658.850425] [ohm:757515:0]        ib_iface.c:1059 UCX  ERROR ibv_create_cq(cqe=256) failed: Connection timed out
[1741097658.850452] [ohm:757566:0]        ib_iface.c:1059 UCX  ERROR ibv_create_cq(cqe=256) failed: Connection timed out


           ************************************************************
           *        Program running with 64 parallel MPI-processes    *
           *              working on a common directory               *
           ************************************************************
------------------------------------------------------------------------------
                             ORCA STARTUP CALCULATIONS
                           -- RI-GTO INTEGRALS CHOSEN --
------------------------------------------------------------------------------
------------------------------------------------------------------------------
                   ___                                                        
                  /   \      - P O W E R E D   B Y -                         
                 /     \                                                     
                 |  |  |   _    _      __       _____    __    __             
                 |  |  |  | |  | |    /  \     |  _  \  |  |  /  |          
                  \  \/   | |  | |   /    \    | | | |  |  | /  /          
                 / \  \   | |__| |  /  /\  \   | |_| |  |  |/  /          
                |  |  |   |  __  | /  /__\  \  |    /   |      \           
                |  |  |   | |  | | |   __   |  |    \   |  |\   \          
                \     /   | |  | | |  |  |  |  | |\  \  |  | \   \       
                 \___/    |_|  |_| |__|  |__|  |_| \__\ |__|  \__/        
                                                                              
                      - O R C A' S   B I G   F R I E N D -                    
                                      &                                       
                       - I N T E G R A L  F E E D E R -                       
                                                                              
 v1 FN, 2020, v2 2021, v3 2022-2024                                           
------------------------------------------------------------------------------


----------------------
SHARK INTEGRAL PACKAGE
----------------------

Number of atoms                             ...     30
Number of basis functions                   ...    882
Number of shells                            ...    322
Maximum angular momentum                    ...      3
Integral batch strategy                     ... SHARK/LIBINT Hybrid
RI-J (if used) integral strategy            ... SPLIT-RIJ (Revised 2003 algorithm where possible)
Printlevel                                  ...      1
Contraction scheme used                     ... SEGMENTED contraction
Prescreening option                         ... SCHWARTZ
   Thresh                                   ... 2.500e-11
   Tcut                                     ... 2.500e-12
   Tpresel                                  ... 2.500e-12 
Coulomb Range Separation                    ... NOT USED
Exchange Range Separation                   ... Long Range
   Mu parameter                             ... 3.000e-01
   Scaling (regular/separated)              ... 1.500e-01 8.500e-01
Multipole approximations                    ... NOT USED
Finite Nucleus Model                        ... NOT USED
CABS basis                                  ... NOT available
Auxiliary Coulomb fitting basis             ... AVAILABLE
   # of basis functions in Aux-J            ...   1014
   # of shells in Aux-J                     ...    330
   Maximum angular momentum in Aux-J        ...      4
Auxiliary J/K fitting basis                 ... NOT available
Auxiliary Correlation fitting basis         ... NOT available
Auxiliary 'external' fitting basis          ... NOT available

Checking pre-screening integrals            ... done (  0.0 sec) Dimension = 322
Check shell pair data                       ... done (  0.0 sec)
Shell pair information
Shell pair cut-off parameter TPreSel        ...   2.5e-12
Total number of shell pairs                 ...     52003
Shell pairs after pre-screening             ...     44997
Total number of primitive shell pairs       ...    129718
Primitive shell pairs kept                  ...     84188
          la=0 lb=0:   8720 shell pairs
          la=1 lb=0:  11900 shell pairs
          la=1 lb=1:   4112 shell pairs
          la=2 lb=0:   8086 shell pairs
          la=2 lb=1:   5610 shell pairs
          la=2 lb=2:   1928 shell pairs
          la=3 lb=0:   2047 shell pairs
          la=3 lb=1:   1464 shell pairs
          la=3 lb=2:    994 shell pairs
          la=3 lb=3:    136 shell pairs

Calculating one electron integrals          ... done (  0.2 sec)
Calculating RI/J V-Matrix + Cholesky decomp.... done (  0.1 sec)
Calculating Nuclear repulsion               ... done (  0.0 sec) ENN=   1441.220243502511 Eh

Diagonalization of the overlap matrix:
Smallest eigenvalue                        ... 6.035e-07
Time for diagonalization                   ...    0.126 sec
Threshold for overlap eigenvalues          ... 1.000e-07
Number of eigenvalues below threshold      ... 0

IMPORTANT:
Smallest eigenvalue of S below the DiffSThresh (1.000e-06) while
Thresh>1e-12 and/or TCut>1e-13! In order to avoid SCF convergence issues,
Thresh will be set to at least 1e-12 and TCut to at least 1e-13.
This can be turned off by adding %SCF DiffSThresh -1 END to the input.

Time for construction of square roots      ...    0.146 sec
Total time needed                          ...    0.288 sec

-------------------
DFT GRID GENERATION
-------------------

General Integration Accuracy     IntAcc      ... 4.388
Radial Grid Type                 RadialGrid  ... OptM3 with GC (2021)
Angular Grid (max. ang.)         AngularGrid ... 4 (Lebedev-302)
Angular grid pruning method      GridPruning ... 4 (adaptive)
Weight generation scheme         WeightScheme... mBecke (2022)
Basis function cutoff            BFCut       ... 1.0000e-11
Integration weight cutoff        WCut        ... 1.0000e-14
Partially contracted basis set               ... off
Rotationally invariant grid construction     ... off
Angular grids for H and He will be reduced by one unit
Diffuse basis detected: some atoms will have their outermost
                        angular grid increased by 1.

Total number of grid points                  ...   151716
Total number of batches                      ...     2386
Average number of points per batch           ...       63
Average number of grid points per atom       ...     5057

--------------------
COSX GRID GENERATION
--------------------

GRIDX 1
-------
General Integration Accuracy     IntAcc      ... 3.816
Radial Grid Type                 RadialGrid  ... OptM3 with GC (2021)
Angular Grid (max. ang.)         AngularGrid ... 1 (Lebedev-50)
Angular grid pruning method      GridPruning ... 4 (adaptive)
Weight generation scheme         WeightScheme... mBecke (2022)
Basis function cutoff            BFCut       ... 1.0000e-11
Integration weight cutoff        WCut        ... 1.0000e-14
Partially contracted basis set               ... on
Rotationally invariant grid construction     ... off
Angular grids for H and He will be reduced by one unit
Diffuse basis detected: some atoms will have their outermost
                        angular grid increased by 1.

Total number of grid points                  ...    19014
Total number of batches                      ...      166
Average number of points per batch           ...      114
Average number of grid points per atom       ...      634
UseSFitting                                  ... on

GRIDX 2
-------
General Integration Accuracy     IntAcc      ... 4.020
Radial Grid Type                 RadialGrid  ... OptM3 with GC (2021)
Angular Grid (max. ang.)         AngularGrid ... 2 (Lebedev-110)
Angular grid pruning method      GridPruning ... 4 (adaptive)
Weight generation scheme         WeightScheme... mBecke (2022)
Basis function cutoff            BFCut       ... 1.0000e-11
Integration weight cutoff        WCut        ... 1.0000e-14
Partially contracted basis set               ... on
Rotationally invariant grid construction     ... off
Angular grids for H and He will be reduced by one unit
Diffuse basis detected: some atoms will have their outermost
                        angular grid increased by 1.

Total number of grid points                  ...    45763
Total number of batches                      ...      372
Average number of points per batch           ...      123
Average number of grid points per atom       ...     1525
UseSFitting                                  ... on

GRIDX 3
-------
General Integration Accuracy     IntAcc      ... 4.338
Radial Grid Type                 RadialGrid  ... OptM3 with GC (2021)
Angular Grid (max. ang.)         AngularGrid ... 3 (Lebedev-194)
Angular grid pruning method      GridPruning ... 4 (adaptive)
Weight generation scheme         WeightScheme... mBecke (2022)
Basis function cutoff            BFCut       ... 1.0000e-11
Integration weight cutoff        WCut        ... 1.0000e-14
Partially contracted basis set               ... on
Rotationally invariant grid construction     ... off
Angular grids for H and He will be reduced by one unit
Diffuse basis detected: some atoms will have their outermost
                        angular grid increased by 1.

Total number of grid points                  ...   100719
Total number of batches                      ...      801
Average number of points per batch           ...      125
Average number of grid points per atom       ...     3357
UseSFitting                                  ... on
Initializing property integral containers    ... done (  0.0 sec)

SHARK setup successfully completed in   4.2 seconds

Maximum memory used throughout the entire STARTUP-calculation: 80.1 MB
[1741097664.906331] [ohm:757860:0]        ib_iface.c:1059 UCX  ERROR ibv_create_cq(cqe=256) failed: Connection timed out
[1741097664.911631] [ohm:757858:0]        ib_iface.c:1059 UCX  ERROR ibv_create_cq(cqe=256) failed: Connection timed out
[1741097664.923618] [ohm:757859:0]        ib_iface.c:1059 UCX  ERROR ibv_create_cq(cqe=256) failed: Connection timed out
[1741097664.930874] [ohm:757861:0]        ib_iface.c:1059 UCX  ERROR ibv_create_cq(cqe=256) failed: Connection timed out
[1741097664.972397] [ohm:757871:0]        ib_iface.c:1059 UCX  ERROR ibv_create_cq(cqe=256) failed: Connection timed out
[1741097664.977109] [ohm:757862:0]        ib_iface.c:1059 UCX  ERROR ibv_create_cq(cqe=256) failed: Connection timed out
[1741097664.978944] [ohm:757863:0]        ib_iface.c:1059 UCX  ERROR ibv_create_cq(cqe=256) failed: Connection timed out
[1741097664.982998] [ohm:757866:0]        ib_iface.c:1059 UCX  ERROR ibv_create_cq(cqe=256) failed: Connection timed out
[1741097664.984399] [ohm:757865:0]        ib_iface.c:1059 UCX  ERROR ibv_create_cq(cqe=256) failed: Connection timed out
[1741097664.991600] [ohm:757868:0]        ib_iface.c:1059 UCX  ERROR ibv_create_cq(cqe=256) failed: Connection timed out
[1741097665.002420] [ohm:757864:0]        ib_iface.c:1059 UCX  ERROR ibv_create_cq(cqe=256) failed: Connection timed out
[1741097665.006774] [ohm:757867:0]        ib_iface.c:1059 UCX  ERROR ibv_create_cq(cqe=256) failed: Connection timed out
[1741097665.010072] [ohm:757873:0]        ib_iface.c:1059 UCX  ERROR ibv_create_cq(cqe=256) failed: Connection timed out
[1741097665.108508] [ohm:757857:0]        ib_iface.c:1059 UCX  ERROR ibv_create_cq(cqe=256) failed: Connection timed out
[1741097665.113122] [ohm:757961:0]        ib_iface.c:1059 UCX  ERROR ibv_create_cq(cqe=256) failed: Connection timed out
[1741097665.119517] [ohm:757958:0]        ib_iface.c:1059 UCX  ERROR ibv_create_cq(cqe=256) failed: Connection timed out
[1741097665.125310] [ohm:757881:0]        ib_iface.c:1059 UCX  ERROR ibv_create_cq(cqe=256) failed: Connection timed out
[1741097665.125510] [ohm:757869:0]        ib_iface.c:1059 UCX  ERROR ibv_create_cq(cqe=256) failed: Connection timed out
[1741097665.125831] [ohm:757927:0]        ib_iface.c:1059 UCX  ERROR ibv_create_cq(cqe=256) failed: Connection timed out
[1741097665.127012] [ohm:757882:0]        ib_iface.c:1059 UCX  ERROR ibv_create_cq(cqe=256) failed: Connection timed out
[1741097665.127411] [ohm:757877:0]        ib_iface.c:1059 UCX  ERROR ibv_create_cq(cqe=256) failed: Connection timed out
[1741097665.133971] [ohm:757888:0]        ib_iface.c:1059 UCX  ERROR ibv_create_cq(cqe=256) failed: Connection timed out
[1741097665.156608] [ohm:757946:0]        ib_iface.c:1059 UCX  ERROR ibv_create_cq(cqe=256) failed: Connection timed out
[1741097665.161073] [ohm:757872:0]        ib_iface.c:1059 UCX  ERROR ibv_create_cq(cqe=256) failed: Connection timed out
[1741097665.165082] [ohm:758001:0]        ib_iface.c:1059 UCX  ERROR ibv_create_cq(cqe=256) failed: Connection timed out
[1741097665.165293] [ohm:757916:0]        ib_iface.c:1059 UCX  ERROR ibv_create_cq(cqe=256) failed: Connection timed out
[1741097665.165353] [ohm:757984:0]        ib_iface.c:1059 UCX  ERROR ibv_create_cq(cqe=256) failed: Connection timed out
[1741097665.167315] [ohm:757964:0]        ib_iface.c:1059 UCX  ERROR ibv_create_cq(cqe=256) failed: Connection timed out
[1741097665.184568] [ohm:757870:0]        ib_iface.c:1059 UCX  ERROR ibv_create_cq(cqe=256) failed: Connection timed out
[1741097665.185727] [ohm:757990:0]        ib_iface.c:1059 UCX  ERROR ibv_create_cq(cqe=256) failed: Connection timed out
[1741097665.189513] [ohm:757971:0]        ib_iface.c:1059 UCX  ERROR ibv_create_cq(cqe=256) failed: Connection timed out
[1741097665.200333] [ohm:757876:0]        ib_iface.c:1059 UCX  ERROR ibv_create_cq(cqe=256) failed: Connection timed out
[1741097665.203228] [ohm:757979:0]        ib_iface.c:1059 UCX  ERROR ibv_create_cq(cqe=256) failed: Connection timed out
[1741097665.203314] [ohm:757878:0]        ib_iface.c:1059 UCX  ERROR ibv_create_cq(cqe=256) failed: Connection timed out
[1741097665.210266] [ohm:757886:0]        ib_iface.c:1059 UCX  ERROR ibv_create_cq(cqe=256) failed: Connection timed out
[1741097665.210442] [ohm:757880:0]        ib_iface.c:1059 UCX  ERROR ibv_create_cq(cqe=256) failed: Connection timed out
[1741097665.213029] [ohm:757892:0]        ib_iface.c:1059 UCX  ERROR ibv_create_cq(cqe=256) failed: Connection timed out
[1741097665.215114] [ohm:757920:0]        ib_iface.c:1059 UCX  ERROR ibv_create_cq(cqe=256) failed: Connection timed out
[1741097665.229081] [ohm:757952:0]        ib_iface.c:1059 UCX  ERROR ibv_create_cq(cqe=256) failed: Connection timed out
[1741097665.229699] [ohm:757906:0]        ib_iface.c:1059 UCX  ERROR ibv_create_cq(cqe=256) failed: Connection timed out
[1741097665.231527] [ohm:757938:0]        ib_iface.c:1059 UCX  ERROR ibv_create_cq(cqe=256) failed: Connection timed out
[1741097665.243867] [ohm:757929:0]        ib_iface.c:1059 UCX  ERROR ibv_create_cq(cqe=256) failed: Connection timed out
[1741097665.244427] [ohm:757980:0]        ib_iface.c:1059 UCX  ERROR ibv_create_cq(cqe=256) failed: Connection timed out
[1741097665.245491] [ohm:757988:0]        ib_iface.c:1059 UCX  ERROR ibv_create_cq(cqe=256) failed: Connection timed out
[1741097665.248369] [ohm:757937:0]        ib_iface.c:1059 UCX  ERROR ibv_create_cq(cqe=256) failed: Connection timed out
[1741097665.256817] [ohm:757885:0]        ib_iface.c:1059 UCX  ERROR ibv_create_cq(cqe=256) failed: Connection timed out
[1741097665.266059] [ohm:757967:0]        ib_iface.c:1059 UCX  ERROR ibv_create_cq(cqe=256) failed: Connection timed out
[1741097665.266940] [ohm:757974:0]        ib_iface.c:1059 UCX  ERROR ibv_create_cq(cqe=256) failed: Connection timed out
[1741097665.273779] [ohm:757994:0]        ib_iface.c:1059 UCX  ERROR ibv_create_cq(cqe=256) failed: Connection timed out
[1741097665.274246] [ohm:757996:0]        ib_iface.c:1059 UCX  ERROR ibv_create_cq(cqe=256) failed: Connection timed out
[1741097665.275202] [ohm:757942:0]        ib_iface.c:1059 UCX  ERROR ibv_create_cq(cqe=256) failed: Connection timed out
[1741097665.276838] [ohm:757948:0]        ib_iface.c:1059 UCX  ERROR ibv_create_cq(cqe=256) failed: Connection timed out
[1741097665.277146] [ohm:757911:0]        ib_iface.c:1059 UCX  ERROR ibv_create_cq(cqe=256) failed: Connection timed out
[1741097665.281012] [ohm:757898:0]        ib_iface.c:1059 UCX  ERROR ibv_create_cq(cqe=256) failed: Connection timed out
[1741097665.284704] [ohm:757908:0]        ib_iface.c:1059 UCX  ERROR ibv_create_cq(cqe=256) failed: Connection timed out
[1741097665.289169] [ohm:757879:0]        ib_iface.c:1059 UCX  ERROR ibv_create_cq(cqe=256) failed: Connection timed out
[1741097665.291096] [ohm:757883:0]        ib_iface.c:1059 UCX  ERROR ibv_create_cq(cqe=256) failed: Connection timed out
[1741097665.291630] [ohm:757944:0]        ib_iface.c:1059 UCX  ERROR ibv_create_cq(cqe=256) failed: Connection timed out
[1741097665.291761] [ohm:757951:0]        ib_iface.c:1059 UCX  ERROR ibv_create_cq(cqe=256) failed: Connection timed out
[1741097665.292528] [ohm:757874:0]        ib_iface.c:1059 UCX  ERROR ibv_create_cq(cqe=256) failed: Connection timed out
[1741097665.292750] [ohm:757985:0]        ib_iface.c:1059 UCX  ERROR ibv_create_cq(cqe=256) failed: Connection timed out
[1741097665.292852] [ohm:757905:0]        ib_iface.c:1059 UCX  ERROR ibv_create_cq(cqe=256) failed: Connection timed out
[1741097665.293335] [ohm:757901:0]        ib_iface.c:1059 UCX  ERROR ibv_create_cq(cqe=256) failed: Connection timed out
[1741097665.294357] [ohm:757875:0]        ib_iface.c:1059 UCX  ERROR ibv_create_cq(cqe=256) failed: Connection timed out


           ************************************************************
           *        Program running with 64 parallel MPI-processes    *
           *              working on a common directory               *
           ************************************************************
-------------------------------------------------------------------------------
                                 ORCA GUESS
                   Start orbitals & Density for SCF / CASSCF
-------------------------------------------------------------------------------

------------
SCF SETTINGS
------------
Hamiltonian:
 Density Functional     Method          .... DFT(GTOs)
  Functional kind                       .... Exchange-Correlation
  Functional name                       .... wB97M-V exchange-correlation functional
  Functional family                     .... Hybrid MGGA
  Functional refs                              
    [ 0] N. Mardirossian and M. Head-Gordon.,  J. Chem. Phys. 144, 214110 (2016), doi: 10.1063/1.4952647
  Fraction of HF Exchange (short range) .... 0.1500
  Fraction of HF Exchange (long range)  .... 1.0000
  Range separation parameter mu         .... 0.3000
  Functional external parameters        .... 17
    Parameter  0 _cx00      =  8.500000e-01 : u^00 coefficient for exchange
    Parameter  1 _cx01      =  1.007000e+00 : u^01 coefficient for exchange
    Parameter  2 _cx10      =  2.590000e-01 : u^10 coefficient for exchange
    Parameter  3 _css00     =  4.430000e-01 : u^00 coefficient for same-spin correlation
    Parameter  4 _css04     = -1.437000e+00 : u^04 coefficient for same-spin correlation
    Parameter  5 _css10     = -4.535000e+00 : u^10 coefficient for same-spin correlation
    Parameter  6 _css20     = -3.390000e+00 : u^20 coefficient for same-spin correlation
    Parameter  7 _css43     =  4.278000e+00 : u^43 coefficient for same-spin correlation
    Parameter  8 _cos00     =  1.000000e+00 : u^00 coefficient for opposite-spin correlation
    Parameter  9 _cos10     =  1.358000e+00 : u^10 coefficient for opposite-spin correlation
    Parameter 10 _cos20     =  2.924000e+00 : u^20 coefficient for opposite-spin correlation
    Parameter 11 _cos21     = -8.812000e+00 : u^21 coefficient for opposite-spin correlation
    Parameter 12 _cos60     = -1.390000e+00 : u^60 coefficient for opposite-spin correlation
    Parameter 13 _cos61     =  9.142000e+00 : u^61 coefficient for opposite-spin correlation
    Parameter 14 _alpha     =  1.000000e+00 : fraction of HF exchange
    Parameter 15 _beta      = -8.500000e-01 : fraction of short-range exchange
    Parameter 16 _omega     =  3.000000e-01 : range-separation constant
 Long-range corrected/Screened/Range-Separated Hybrid DFT is turned on
   Amount of maximum screened exact exchange              ....  0.850000
   Range separation parameter mu (erf(mu*r12)/r12)        ....  0.300000
 RI-approximation to the Coulomb term is turned on
   Number of AuxJ basis functions       .... 1014
   RIJ-COSX (HFX calculated with COS-X)).... on


General Settings:
 Integral files         IntName         .... orca
 Hartree-Fock type      HFTyp           .... UHF
 Total Charge           Charge          ....    0
 Multiplicity           Mult            ....    3
 Number of Electrons    NEL             ....  132
 Basis Dimension        Dim             ....  882
 Nuclear Repulsion      ENuc            ....   1441.2202435025 Eh

Convergence Acceleration:
 AO-DIIS                CNVDIIS         .... on
   Start iteration      DIISMaxIt       ....    12
   Startup error        DIISStart       ....  0.200000
   # of expansion vecs  DIISMaxEq       ....     5
   Bias factor          DIISBfac        ....   1.050
   Max. coefficient     DIISMaxC        ....  10.000
 MO-DIIS                CNVKDIIS        .... off
 Trust-Rad. Augm. Hess. CNVTRAH         .... auto
   Auto Start mean grad. ratio tolernc. ....  1.125000
   Auto Start start iteration           ....    50
   Auto Start num. interpolation iter.  ....    10
   Max. Number of Micro iterations      ....    24
   Max. Number of Macro iterations      .... Maxiter - #DIIS iter
   Number of Davidson start vectors     ....     2
   Converg. threshold    (grad. norm)   ....   1.000e-05
   Grad. Scal. Fac. for Micro threshold ....   0.100
   Minimum threshold for Micro iter.    ....   1.000e-02
   NR start threshold (gradient norm)   ....   1.000e-04
   Initial trust radius                 ....   0.400
   Minimum AH scaling param. (alpha)    ....   1.000
   Maximum AH scaling param. (alpha)    .... 1000.000
   Quad. conv. algorithm                .... NR
   White noise on init. David. guess    .... on
   Maximum white noise                  ....   0.010
   Pseudo random numbers                .... off
   Inactive MOs                         .... canonical
   Orbital update algorithm             .... Taylor
   Preconditioner                       .... Diag
   Full preconditioner red. dimension   ....   250
 SOSCF                  CNVSOSCF        .... on
   Start iteration      SOSCFMaxIt      ....   150
   Startup grad/error   SOSCFStart      ....  0.003300
   Hessian update       SOSCFHessUp     .... L-BFGS
 Level Shifting         CNVShift        .... on
   Level shift para.    LevelShift      ....    0.2500
   Turn off err/grad.   ShiftErr        ....    0.0010
 Zerner damping         CNVZerner       .... off
 Static damping         CNVDamp         .... on
   Fraction old density DampFac         ....    0.7000
   Max. Damping (<1)    DampMax         ....    0.9800
   Min. Damping (>=0)   DampMin         ....    0.0000
   Turn off err/grad.   DampErr         ....    0.1000

SCF Procedure:
 Maximum # iterations   MaxIter         ....   125
 SCF integral mode      SCFMode         .... Direct
   Integral package                     .... SHARK and LIBINT hybrid scheme
 Reset frequency        DirectResetFreq ....    20
 Integral Threshold     Thresh          ....  1.000e-12 Eh
 Primitive CutOff       TCut            ....  1.000e-13 Eh

Convergence Tolerance:
 Convergence Check Mode ConvCheckMode   .... Total+1el-Energy
 Convergence forced     ConvForced      .... 1
 Energy Change          TolE            ....  1.000e-08 Eh
 1-El. energy change                    ....  1.000e-05 Eh
 Orbital Gradient       TolG            ....  1.000e-05
 Orbital Rotation angle TolX            ....  1.000e-05
 DIIS Error             TolErr          ....  5.000e-07

------------------------------
INITIAL GUESS: MODEL POTENTIAL
------------------------------
Loading Hartree-Fock densities                     ... done
Calculating cut-offs                               ... done
Initializing the effective Hamiltonian             ... done
Setting up the integral package (SHARK)            ... done
Starting the Coulomb interaction                   ... done (   0.1 sec)
Making the grid                                    ... done (   0.3 sec)
Mapping shells                                     ... done
Starting the XC term evaluation                    ... done (   0.1 sec)
  promolecular density results
     # of electrons  =    131.997095131
     EX              =   -113.601418075
     EC              =     -4.506206278
     EX+EC           =   -118.107624353
Transforming the Hamiltonian                       ... done (   0.1 sec)
Diagonalizing the Hamiltonian                      ... done (   0.1 sec)
Back transforming the eigenvectors                 ... done (   0.2 sec)
Now organizing SCF variables                       ... done
                      ------------------
                      INITIAL GUESS DONE (   1.1 sec)
                      ------------------
             **** ENERGY FILE WAS UPDATED (orca.en.tmp) ****
Finished Guess after   3.6 sec
Maximum memory used throughout the entire GUESS-calculation: 72.5 MB
[1741097669.351731] [ohm:758209:0]        ib_iface.c:1059 UCX  ERROR ibv_create_cq(cqe=256) failed: Connection timed out
[1741097669.378705] [ohm:758210:0]        ib_iface.c:1059 UCX  ERROR ibv_create_cq(cqe=256) failed: Connection timed out
[1741097669.385528] [ohm:758213:0]        ib_iface.c:1059 UCX  ERROR ibv_create_cq(cqe=256) failed: Connection timed out
[1741097669.393095] [ohm:758212:0]        ib_iface.c:1059 UCX  ERROR ibv_create_cq(cqe=256) failed: Connection timed out
[1741097669.400876] [ohm:758215:0]        ib_iface.c:1059 UCX  ERROR ibv_create_cq(cqe=256) failed: Connection timed out
[1741097669.402752] [ohm:758222:0]        ib_iface.c:1059 UCX  ERROR ibv_create_cq(cqe=256) failed: Connection timed out
[1741097669.408452] [ohm:758217:0]        ib_iface.c:1059 UCX  ERROR ibv_create_cq(cqe=256) failed: Connection timed out
[1741097669.419729] [ohm:758225:0]        ib_iface.c:1059 UCX  ERROR ibv_create_cq(cqe=256) failed: Connection timed out
[1741097669.421397] [ohm:758219:0]        ib_iface.c:1059 UCX  ERROR ibv_create_cq(cqe=256) failed: Connection timed out
[1741097669.421859] [ohm:758214:0]        ib_iface.c:1059 UCX  ERROR ibv_create_cq(cqe=256) failed: Connection timed out
[1741097669.422748] [ohm:758208:0]        ib_iface.c:1059 UCX  ERROR ibv_create_cq(cqe=256) failed: Connection timed out
[1741097669.448802] [ohm:758220:0]        ib_iface.c:1059 UCX  ERROR ibv_create_cq(cqe=256) failed: Connection timed out
[1741097669.468943] [ohm:758223:0]        ib_iface.c:1059 UCX  ERROR ibv_create_cq(cqe=256) failed: Connection timed out
[1741097669.479417] [ohm:758226:0]        ib_iface.c:1059 UCX  ERROR ibv_create_cq(cqe=256) failed: Connection timed out
[1741097669.482672] [ohm:758239:0]        ib_iface.c:1059 UCX  ERROR ibv_create_cq(cqe=256) failed: Connection timed out
[1741097669.535002] [ohm:758252:0]        ib_iface.c:1059 UCX  ERROR ibv_create_cq(cqe=256) failed: Connection timed out
[1741097669.543717] [ohm:758228:0]        ib_iface.c:1059 UCX  ERROR ibv_create_cq(cqe=256) failed: Connection timed out
[1741097669.545463] [ohm:758245:0]        ib_iface.c:1059 UCX  ERROR ibv_create_cq(cqe=256) failed: Connection timed out
[1741097669.546131] [ohm:758275:0]        ib_iface.c:1059 UCX  ERROR ibv_create_cq(cqe=256) failed: Connection timed out
[1741097669.552824] [ohm:758231:0]        ib_iface.c:1059 UCX  ERROR ibv_create_cq(cqe=256) failed: Connection timed out
[1741097669.564788] [ohm:758216:0]        ib_iface.c:1059 UCX  ERROR ibv_create_cq(cqe=256) failed: Connection timed out
[1741097669.576189] [ohm:758238:0]        ib_iface.c:1059 UCX  ERROR ibv_create_cq(cqe=256) failed: Connection timed out
[1741097669.587945] [ohm:758305:0]        ib_iface.c:1059 UCX  ERROR ibv_create_cq(cqe=256) failed: Connection timed out
[1741097669.592486] [ohm:758306:0]        ib_iface.c:1059 UCX  ERROR ibv_create_cq(cqe=256) failed: Connection timed out
[1741097669.595419] [ohm:758235:0]        ib_iface.c:1059 UCX  ERROR ibv_create_cq(cqe=256) failed: Connection timed out
[1741097669.601635] [ohm:758289:0]        ib_iface.c:1059 UCX  ERROR ibv_create_cq(cqe=256) failed: Connection timed out
[1741097669.613739] [ohm:758310:0]        ib_iface.c:1059 UCX  ERROR ibv_create_cq(cqe=256) failed: Connection timed out
[1741097669.616840] [ohm:758296:0]        ib_iface.c:1059 UCX  ERROR ibv_create_cq(cqe=256) failed: Connection timed out
[1741097669.620367] [ohm:758313:0]        ib_iface.c:1059 UCX  ERROR ibv_create_cq(cqe=256) failed: Connection timed out
[1741097669.624447] [ohm:758230:0]        ib_iface.c:1059 UCX  ERROR ibv_create_cq(cqe=256) failed: Connection timed out
[1741097669.627709] [ohm:758335:0]        ib_iface.c:1059 UCX  ERROR ibv_create_cq(cqe=256) failed: Connection timed out
[1741097669.634159] [ohm:758270:0]        ib_iface.c:1059 UCX  ERROR ibv_create_cq(cqe=256) failed: Connection timed out
[1741097669.643704] [ohm:758224:0]        ib_iface.c:1059 UCX  ERROR ibv_create_cq(cqe=256) failed: Connection timed out
[1741097669.653564] [ohm:758329:0]        ib_iface.c:1059 UCX  ERROR ibv_create_cq(cqe=256) failed: Connection timed out
[1741097669.653846] [ohm:758246:0]        ib_iface.c:1059 UCX  ERROR ibv_create_cq(cqe=256) failed: Connection timed out
[1741097669.665988] [ohm:758218:0]        ib_iface.c:1059 UCX  ERROR ibv_create_cq(cqe=256) failed: Connection timed out
[1741097669.676157] [ohm:758317:0]        ib_iface.c:1059 UCX  ERROR ibv_create_cq(cqe=256) failed: Connection timed out
[1741097669.683091] [ohm:758283:0]        ib_iface.c:1059 UCX  ERROR ibv_create_cq(cqe=256) failed: Connection timed out
[1741097669.683884] [ohm:758268:0]        ib_iface.c:1059 UCX  ERROR ibv_create_cq(cqe=256) failed: Connection timed out
[1741097669.685664] [ohm:758254:0]        ib_iface.c:1059 UCX  ERROR ibv_create_cq(cqe=256) failed: Connection timed out
[1741097669.691733] [ohm:758341:0]        ib_iface.c:1059 UCX  ERROR ibv_create_cq(cqe=256) failed: Connection timed out
[1741097669.694631] [ohm:758295:0]        ib_iface.c:1059 UCX  ERROR ibv_create_cq(cqe=256) failed: Connection timed out
[1741097669.696155] [ohm:758207:0]        ib_iface.c:1059 UCX  ERROR ibv_create_cq(cqe=256) failed: Connection timed out
[1741097669.697102] [ohm:758298:0]        ib_iface.c:1059 UCX  ERROR ibv_create_cq(cqe=256) failed: Connection timed out
[1741097669.699839] [ohm:758280:0]        ib_iface.c:1059 UCX  ERROR ibv_create_cq(cqe=256) failed: Connection timed out
[1741097669.700658] [ohm:758322:0]        ib_iface.c:1059 UCX  ERROR ibv_create_cq(cqe=256) failed: Connection timed out
[1741097669.701437] [ohm:758301:0]        ib_iface.c:1059 UCX  ERROR ibv_create_cq(cqe=256) failed: Connection timed out
[1741097669.702095] [ohm:758260:0]        ib_iface.c:1059 UCX  ERROR ibv_create_cq(cqe=256) failed: Connection timed out
[1741097669.702268] [ohm:758350:0]        ib_iface.c:1059 UCX  ERROR ibv_create_cq(cqe=256) failed: Connection timed out
[1741097669.709071] [ohm:758263:0]        ib_iface.c:1059 UCX  ERROR ibv_create_cq(cqe=256) failed: Connection timed out
[1741097669.713248] [ohm:758326:0]        ib_iface.c:1059 UCX  ERROR ibv_create_cq(cqe=256) failed: Connection timed out
[1741097669.713926] [ohm:758234:0]        ib_iface.c:1059 UCX  ERROR ibv_create_cq(cqe=256) failed: Connection timed out
[1741097669.715171] [ohm:758221:0]        ib_iface.c:1059 UCX  ERROR ibv_create_cq(cqe=256) failed: Connection timed out
[1741097669.715639] [ohm:758233:0]        ib_iface.c:1059 UCX  ERROR ibv_create_cq(cqe=256) failed: Connection timed out
[1741097669.716545] [ohm:758259:0]        ib_iface.c:1059 UCX  ERROR ibv_create_cq(cqe=256) failed: Connection timed out
[1741097669.716651] [ohm:758211:0]        ib_iface.c:1059 UCX  ERROR ibv_create_cq(cqe=256) failed: Connection timed out
[1741097669.717588] [ohm:758337:0]        ib_iface.c:1059 UCX  ERROR ibv_create_cq(cqe=256) failed: Connection timed out
[1741097669.719904] [ohm:758342:0]        ib_iface.c:1059 UCX  ERROR ibv_create_cq(cqe=256) failed: Connection timed out
[1741097669.721697] [ohm:758232:0]        ib_iface.c:1059 UCX  ERROR ibv_create_cq(cqe=256) failed: Connection timed out
[1741097669.722973] [ohm:758346:0]        ib_iface.c:1059 UCX  ERROR ibv_create_cq(cqe=256) failed: Connection timed out
[1741097669.724471] [ohm:758332:0]        ib_iface.c:1059 UCX  ERROR ibv_create_cq(cqe=256) failed: Connection timed out
[1741097669.724845] [ohm:758227:0]        ib_iface.c:1059 UCX  ERROR ibv_create_cq(cqe=256) failed: Connection timed out
[1741097669.724838] [ohm:758290:0]        ib_iface.c:1059 UCX  ERROR ibv_create_cq(cqe=256) failed: Connection timed out
[1741097669.725258] [ohm:758229:0]        ib_iface.c:1059 UCX  ERROR ibv_create_cq(cqe=256) failed: Connection timed out


           ************************************************************
           *        Program running with 64 parallel MPI-processes    *
           *              working on a common directory               *
           ************************************************************

-------------------------------------------------------------------------------------------
                                      ORCA LEAN-SCF
                              memory conserving SCF solver
-------------------------------------------------------------------------------------------

----------------------------------------D-I-I-S--------------------------------------------
Iteration    Energy (Eh)           Delta-E    RMSDP     MaxDP     DIISErr   Damp  Time(sec)
-------------------------------------------------------------------------------------------
               ***  Starting incremental Fock matrix formation  ***
    1    -908.0976630870786721     0.00e+00  1.64e-03  2.33e-01  1.51e-01  0.700   7.8
    2    -908.3683202862871440    -2.71e-01  1.32e-03  1.59e-01  7.22e-02  0.700   6.7
                               ***Turning on AO-DIIS***
    3    -908.4871189343530204    -1.19e-01  9.60e-04  1.29e-01  2.81e-02  0.700   5.8
    4    -908.5602861780844250    -7.32e-02  2.33e-03  3.16e-01  1.92e-02  0.000   5.7
    5    -908.7249870273103625    -1.65e-01  3.02e-04  6.31e-02  6.24e-03  0.000   5.8
                              *** Initializing SOSCF ***
---------------------------------------S-O-S-C-F--------------------------------------
Iteration    Energy (Eh)           Delta-E    RMSDP     MaxDP     MaxGrad    Time(sec)
--------------------------------------------------------------------------------------
    6    -908.7263452472716381    -1.36e-03  1.49e-04  4.19e-02  2.94e-03     6.5
               *** Restarting incremental Fock matrix formation ***
    7    -908.7269715426205039    -6.26e-04  2.30e-04  4.34e-02  3.81e-03     7.3
    8    -908.7273947062999468    -4.23e-04  2.76e-04  7.66e-02  1.97e-03     6.6
    9    -908.7275724336373059    -1.78e-04  1.25e-04  1.54e-02  1.33e-03     6.6
   10    -908.7276563509622065    -8.39e-05  3.75e-05  1.20e-02  5.69e-04     6.4
   11    -908.7276725077535957    -1.62e-05  1.40e-05  2.37e-03  2.04e-04     6.2
   12    -908.7276777188740198    -5.21e-06  1.40e-05  4.08e-03  1.90e-04     6.1
   13    -908.7276804188782080    -2.70e-06  4.18e-06  8.69e-04  5.24e-05     6.1
   14    -908.7276805930887349    -1.74e-07  1.78e-06  3.46e-04  1.80e-05     5.9
   15    -908.7276806069548911    -1.39e-08  1.68e-06  2.77e-04  1.61e-05     5.6
   16    -908.7276806166833012    -9.73e-09  1.54e-06  3.12e-04  5.49e-06     5.6
                 **** Energy Check signals convergence ****

               *****************************************************
               *                     SUCCESS                       *
               *           SCF CONVERGED AFTER  16 CYCLES          *
               *****************************************************

Recomputing exchange energy using gridx3       ... done (    7.863 sec)
Old exchange energy                            :    -35.049844626 Eh
New exchange energy                            :    -35.049853595 Eh
Exchange energy change after final integration :     -0.000008968 Eh
Total energy after final integration           :   -908.727689585 Eh
             **** ENERGY FILE WAS UPDATED (orca.en.tmp) ****

----------------
TOTAL SCF ENERGY
----------------

Total Energy       :       -908.72768958506333 Eh          -24727.73757 eV

Components:
Nuclear Repulsion  :       1441.22024350251104 Eh           39217.59661 eV
Electronic Energy  :      -2349.94792411919434 Eh          -63945.33393 eV
One Electron Energy:      -4098.90476332313665 Eh         -111536.86903 eV
Two Electron Energy:       1748.95683920394231 Eh           47591.53510 eV

Virial components:
Potential Energy   :      -1814.83531987772790 Eh          -49384.17970 eV
Kinetic Energy     :        906.10763029266457 Eh           24656.44213 eV
Virial Ratio       :          2.00289155416510

DFT components:
N(Alpha)           :       67.000068826269 electrons
N(Beta)            :       65.000061257186 electrons
N(Total)           :      132.000130083455 electrons
E(XC)              :      -86.316109263304 Eh       

---------------
SCF CONVERGENCE
---------------

  Last Energy change         ...    9.7284e-09  Tolerance :   1.0000e-08
  Last MAX-Density change    ...    3.1182e-04  Tolerance :   1.0000e-07
  Last RMS-Density change    ...    1.5353e-06  Tolerance :   5.0000e-09
  Last DIIS Error            ...    2.9351e-03  Tolerance :   5.0000e-07
  Last Orbital Gradient      ...    5.4926e-06  Tolerance :   1.0000e-05
  Last Orbital Rotation      ...    1.7908e-05  Tolerance :   1.0000e-05


----------------------
UHF SPIN CONTAMINATION
----------------------

Warning: in a DFT calculation there is little theoretical justification to 
         calculate <S**2> as in Hartree-Fock theory. We will do it anyways
         but you should keep in mind that the values have only limited relevance

Expectation value of <S**2>     :     2.016259
Ideal value S*(S+1) for S=1.0   :     2.000000
Deviation                       :     0.016259

----------------
ORBITAL ENERGIES
----------------
                 SPIN UP ORBITALS
  NO   OCC          E(Eh)            E(eV) 
   0   1.0000     -19.334350      -526.1144 
   1   1.0000     -19.326140      -525.8910 
   2   1.0000     -19.325709      -525.8793 
   3   1.0000     -19.320509      -525.7378 
   4   1.0000     -14.571335      -396.5062 
   5   1.0000     -14.568481      -396.4285 
   6   1.0000     -14.564048      -396.3079 
   7   1.0000     -14.563385      -396.2898 
   8   1.0000     -10.506928      -285.9081 
   9   1.0000     -10.505970      -285.8820 
  10   1.0000     -10.485422      -285.3228 
  11   1.0000     -10.473380      -284.9952 
  12   1.0000     -10.449611      -284.3484 
  13   1.0000     -10.444791      -284.2172 
  14   1.0000     -10.422535      -283.6116 
  15   1.0000     -10.422112      -283.6001 
  16   1.0000     -10.392952      -282.8066 
  17   1.0000     -10.380395      -282.4649 
  18   1.0000      -1.239843       -33.7379 
  19   1.0000      -1.233676       -33.5700 
  20   1.0000      -1.191306       -32.4171 
  21   1.0000      -1.179825       -32.1047 
  22   1.0000      -1.137114       -30.9425 
  23   1.0000      -1.109163       -30.1819 
  24   1.0000      -1.077098       -29.3093 
  25   1.0000      -1.066694       -29.0262 
  26   1.0000      -0.988303       -26.8931 
  27   1.0000      -0.967058       -26.3150 
  28   1.0000      -0.892129       -24.2761 
  29   1.0000      -0.847994       -23.0751 
  30   1.0000      -0.826448       -22.4888 
  31   1.0000      -0.813012       -22.1232 
  32   1.0000      -0.798346       -21.7241 
  33   1.0000      -0.783081       -21.3087 
  34   1.0000      -0.708912       -19.2905 
  35   1.0000      -0.703795       -19.1512 
  36   1.0000      -0.697303       -18.9746 
  37   1.0000      -0.690271       -18.7832 
  38   1.0000      -0.666590       -18.1388 
  39   1.0000      -0.653918       -17.7940 
  40   1.0000      -0.626829       -17.0569 
  41   1.0000      -0.614555       -16.7229 
  42   1.0000      -0.601351       -16.3636 
  43   1.0000      -0.588345       -16.0097 
  44   1.0000      -0.578060       -15.7298 
  45   1.0000      -0.574428       -15.6310 
  46   1.0000      -0.571966       -15.5640 
  47   1.0000      -0.566315       -15.4102 
  48   1.0000      -0.564245       -15.3539 
  49   1.0000      -0.556130       -15.1331 
  50   1.0000      -0.551729       -15.0133 
  51   1.0000      -0.544138       -14.8068 
  52   1.0000      -0.535864       -14.5816 
  53   1.0000      -0.522377       -14.2146 
  54   1.0000      -0.512491       -13.9456 
  55   1.0000      -0.499066       -13.5803 
  56   1.0000      -0.481442       -13.1007 
  57   1.0000      -0.433428       -11.7942 
  58   1.0000      -0.421041       -11.4571 
  59   1.0000      -0.412001       -11.2111 
  60   1.0000      -0.405830       -11.0432 
  61   1.0000      -0.404289       -11.0013 
  62   1.0000      -0.398226       -10.8363 
  63   1.0000      -0.388765       -10.5788 
  64   1.0000      -0.385834       -10.4991 
  65   1.0000      -0.359740        -9.7890 
  66   1.0000      -0.320863        -8.7311 
  67   0.0000       0.007561         0.2057 
  68   0.0000       0.028143         0.7658 
  69   0.0000       0.033113         0.9011 
  70   0.0000       0.036383         0.9900 
  71   0.0000       0.053824         1.4646 
  72   0.0000       0.056337         1.5330 
  73   0.0000       0.058725         1.5980 
  74   0.0000       0.064861         1.7650 
  75   0.0000       0.065414         1.7800 
  76   0.0000       0.066920         1.8210 
  77   0.0000       0.069912         1.9024 

                 SPIN DOWN ORBITALS
  NO   OCC          E(Eh)            E(eV) 
   0   1.0000     -19.330831      -526.0186 
   1   1.0000     -19.326146      -525.8912 
   2   1.0000     -19.320390      -525.7345 
   3   1.0000     -19.320098      -525.7266 
   4   1.0000     -14.571189      -396.5022 
   5   1.0000     -14.567769      -396.4091 
   6   1.0000     -14.563606      -396.2959 
   7   1.0000     -14.563359      -396.2891 
   8   1.0000     -10.506986      -285.9096 
   9   1.0000     -10.506011      -285.8831 
  10   1.0000     -10.486384      -285.3490 
  11   1.0000     -10.474686      -285.0307 
  12   1.0000     -10.449002      -284.3318 
  13   1.0000     -10.444123      -284.1990 
  14   1.0000     -10.411293      -283.3057 
  15   1.0000     -10.411248      -283.3045 
  16   1.0000     -10.393696      -282.8268 
  17   1.0000     -10.380857      -282.4775 
  18   1.0000      -1.239419       -33.7263 
  19   1.0000      -1.233021       -33.5522 
  20   1.0000      -1.186612       -32.2894 
  21   1.0000      -1.173373       -31.9291 
  22   1.0000      -1.134560       -30.8729 
  23   1.0000      -1.106844       -30.1188 
  24   1.0000      -1.074761       -29.2457 
  25   1.0000      -1.064225       -28.9590 
  26   1.0000      -0.974846       -26.5269 
  27   1.0000      -0.949265       -25.8308 
  28   1.0000      -0.885837       -24.1048 
  29   1.0000      -0.843738       -22.9593 
  30   1.0000      -0.818569       -22.2744 
  31   1.0000      -0.807784       -21.9809 
  32   1.0000      -0.796505       -21.6740 
  33   1.0000      -0.781684       -21.2707 
  34   1.0000      -0.704794       -19.1784 
  35   1.0000      -0.698051       -18.9949 
  36   1.0000      -0.690955       -18.8018 
  37   1.0000      -0.684161       -18.6170 
  38   1.0000      -0.655139       -17.8272 
  39   1.0000      -0.650065       -17.6892 
  40   1.0000      -0.621942       -16.9239 
  41   1.0000      -0.609187       -16.5768 
  42   1.0000      -0.596377       -16.2283 
  43   1.0000      -0.583488       -15.8775 
  44   1.0000      -0.570896       -15.5349 
  45   1.0000      -0.565746       -15.3947 
  46   1.0000      -0.562125       -15.2962 
  47   1.0000      -0.560160       -15.2427 
  48   1.0000      -0.551355       -15.0031 
  49   1.0000      -0.549142       -14.9429 
  50   1.0000      -0.545281       -14.8378 
  51   1.0000      -0.537353       -14.6221 
  52   1.0000      -0.528544       -14.3824 
  53   1.0000      -0.512781       -13.9535 
  54   1.0000      -0.502120       -13.6634 
  55   1.0000      -0.495959       -13.4957 
  56   1.0000      -0.477825       -13.0023 
  57   1.0000      -0.429036       -11.6747 
  58   1.0000      -0.418097       -11.3770 
  59   1.0000      -0.406704       -11.0670 
  60   1.0000      -0.395524       -10.7627 
  61   1.0000      -0.392873       -10.6906 
  62   1.0000      -0.386209       -10.5093 
  63   1.0000      -0.381316       -10.3761 
  64   1.0000      -0.377187       -10.2638 
  65   0.0000      -0.078034        -2.1234 
  66   0.0000      -0.049984        -1.3601 
  67   0.0000       0.007179         0.1953 
  68   0.0000       0.027802         0.7565 
  69   0.0000       0.032803         0.8926 
  70   0.0000       0.036114         0.9827 
  71   0.0000       0.053739         1.4623 
  72   0.0000       0.057725         1.5708 
  73   0.0000       0.059492         1.6189 
  74   0.0000       0.065345         1.7781 
  75   0.0000       0.066037         1.7970 
*Only the first 10 virtual orbitals were printed.

                    ********************************
                    * MULLIKEN POPULATION ANALYSIS *
                    ********************************

--------------------------------------------
MULLIKEN ATOMIC CHARGES AND SPIN POPULATIONS
--------------------------------------------
   0 O :   -0.684917    0.131643
   1 O :   -0.704739    0.213243
   2 O :   -0.611123    0.003504
   3 O :   -0.619643   -0.000050
   4 N :   -0.160492    0.038319
   5 N :   -0.358401    0.017253
   6 N :   -0.058601    0.034082
   7 N :   -0.015386    0.015403
   8 C :   -0.321733    0.445469
   9 C :   -0.187916    0.381186
  10 C :    0.571259    0.142124
  11 C :    0.461989    0.198166
  12 C :   -1.268851    0.011571
  13 C :   -1.204197    0.022358
  14 C :    0.499639    0.084541
  15 C :    0.584851    0.113543
  16 C :    0.402362    0.008051
  17 C :    0.376245   -0.000234
  18 H :    0.579749    0.006043
  19 H :    0.706430    0.028221
  20 H :    0.289075    0.011286
  21 H :    0.328841    0.032797
  22 H :    0.267010    0.014695
  23 H :    0.241368    0.023893
  24 H :    0.342391    0.024503
  25 H :    0.246997    0.001896
  26 H :    0.013063   -0.001507
  27 H :    0.142463   -0.001534
  28 H :    0.056147    0.000021
  29 H :    0.086119   -0.000485
Sum of atomic charges         :    0.0000000
Sum of atomic spin populations:    2.0000000

-----------------------------------------------------
MULLIKEN REDUCED ORBITAL CHARGES AND SPIN POPULATIONS
-----------------------------------------------------
CHARGE
  0 O s       :     4.096737  s :     4.096737
      pz      :     1.610625  p :     4.558490
      px      :     1.442264
      py      :     1.505601
      dz2     :     0.003174  d :     0.027886
      dxz     :     0.006902
      dyz     :     0.006417
      dx2y2   :     0.004130
      dxy     :     0.007264
      f0      :     0.000194  f :     0.001804
      f+1     :     0.000425
      f-1     :     0.000092
      f+2     :     0.000392
      f-2     :     0.000373
      f+3     :     0.000173
      f-3     :     0.000154

  1 O s       :     4.109474  s :     4.109474
      pz      :     1.370135  p :     4.565849
      px      :     1.752581
      py      :     1.443133
[...]
[1741097946.881417] [ohm:760592:0]        ib_iface.c:1059 UCX  ERROR ibv_create_cq(cqe=256) failed: Connection timed out
[1741097946.885351] [ohm:760464:0]        ib_iface.c:1059 UCX  ERROR ibv_create_cq(cqe=256) failed: Connection timed out
[1741097946.891355] [ohm:760451:0]        ib_iface.c:1059 UCX  ERROR ibv_create_cq(cqe=256) failed: Connection timed out
[1741097946.891854] [ohm:760443:0]        ib_iface.c:1059 UCX  ERROR ibv_create_cq(cqe=256) failed: Connection timed out
[1741097946.892332] [ohm:760445:0]        ib_iface.c:1059 UCX  ERROR ibv_create_cq(cqe=256) failed: Connection timed out
[1741097946.892794] [ohm:760546:0]        ib_iface.c:1059 UCX  ERROR ibv_create_cq(cqe=256) failed: Connection timed out
[1741097946.894686] [ohm:760453:0]        ib_iface.c:1059 UCX  ERROR ibv_create_cq(cqe=256) failed: Connection timed out
[1741097946.894893] [ohm:760446:0]        ib_iface.c:1059 UCX  ERROR ibv_create_cq(cqe=256) failed: Connection timed out
[1741097946.895289] [ohm:760440:0]        ib_iface.c:1059 UCX  ERROR ibv_create_cq(cqe=256) failed: Connection timed out
[1741097946.896309] [ohm:760478:0]        ib_iface.c:1059 UCX  ERROR ibv_create_cq(cqe=256) failed: Connection timed out
[1741097946.896914] [ohm:760555:0]        ib_iface.c:1059 UCX  ERROR ibv_create_cq(cqe=256) failed: Connection timed out


           ************************************************************
           *        Program running with 64 parallel MPI-processes    *
           *              working on a common directory               *
           ************************************************************

------------------------------------------------------------------------------
                              ORCA PROPERTY CALCULATIONS
------------------------------------------------------------------------------

GBWName                                 ... orca.gbw
Number of atoms                         ...     30
Number of basis functions               ...    882
Max core memory                         ...   1024 MB

Electric properties:
Dipole moment                           ... YES
Quadrupole moment                       ...  NO
Static polarizability (Dipole/Dipole)   ...  NO
Static polarizability (Dipole/Quad.)    ...  NO
Static polarizability (Quad./Quad.)     ...  NO
Static polarizability (Velocity)        ...  NO

Atomic electric properties:
Dipole moment                           ...  NO
Quadrupole moment                       ...  NO
Static polarizability                   ...  NO

Choice of electric origin               ... Center of mass
Position of electric origin             ...    -0.013918    -0.087076    -0.048557

General magnetic properties:
Magnetizability                         ...  NO

EPR properties:
g-Tensor (aka g-matrix)                 ...  NO
Zero-Field splitting spin-orbit         ...  NO
Zero-field splitting spin-spin          ...  NO
Hyperfine couplings                     ...  NO (   0 nuclei)
Quadrupole couplings                    ...  NO (   0 nuclei)
Contact density                         ...  NO (   0 nuclei)

NMR properties:
Chemical shifts                         ...  NO (   0 nuclei)
Spin-rotation constants                 ...  NO (   0 nuclei)
Spin-spin couplings                     ...  NO (   0 nuclei,    0 pairs)

Choice of magnetic origin               ... GIAO
Position of magnetic origin             ...     0.000000     0.000000     0.000000

Properties with geometric perturbations:
SCF Hessian                             ...  NO
IR spectrum                             ...  NO
VCD spectrum                            ...  NO
X-ray spectroscopy properties:
SCF XES/XAS/RIXS spectra                ...  NO


-------------
DIPOLE MOMENT
-------------

Method             : SCF
Type of density    : Electron Density
Multiplicity       :   3
Irrep              :   0
Energy             :  -908.7276895850633309 Eh
Relativity type    : 
Basis              : AO
                                X                 Y                 Z
Electronic contribution:     -9.581335304      -4.237416433      -1.429692908
Nuclear contribution   :     11.275875849       4.676551872       3.099726454
                        -----------------------------------------
Total Dipole Moment    :      1.694540544       0.439135439       1.670033546
                        -----------------------------------------
Magnitude (a.u.)       :      2.419363477
Magnitude (Debye)      :      6.149533247



--------------------
Rotational spectrum 
--------------------
 
Rotational constants in cm-1:             0.023781             0.011921             0.010999 
Rotational constants in MHz :           712.926668           357.378048           329.736206 

Dipole components along the rotational axes: 
x,y,z [a.u.] :     0.664671     2.263576     0.536428 
x,y,z [Debye]:     1.689458     5.753554     1.363491 

 

-------------
DIPOLE MOMENT
-------------

Method             : TDA/CIS
Type of density    : Electron Density
Level              : Relaxed density
State              :   1
Multiplicity       :   3
Irrep              :   0
Energy             :     0.0000000000000000 Eh
Relativity type    : 
Basis              : AO
                                X                 Y                 Z
Electronic contribution:     -9.530468766      -4.267284707      -1.312836297
Nuclear contribution   :     11.275875849       4.676551872       3.099726454
                        -----------------------------------------
Total Dipole Moment    :      1.745407083       0.409267164       1.786890156
                        -----------------------------------------
Magnitude (a.u.)       :      2.531189825
Magnitude (Debye)      :      6.433773234



--------------------
Rotational spectrum 
--------------------
 
Rotational constants in cm-1:             0.023781             0.011921             0.010999 
Rotational constants in MHz :           712.926668           357.378048           329.736206 

Dipole components along the rotational axes: 
x,y,z [a.u.] :     0.669925     2.389180     0.499943 
x,y,z [Debye]:     1.702813     6.072812     1.270754 

 

Dipole moment calculation done in   0.2 sec 

Maximum memory used throughout the entire PROP-calculation: 81.6 MB
[1741097949.364831] [ohm:760791:0]        ib_iface.c:1059 UCX  ERROR ibv_create_cq(cqe=256) failed: Connection timed out
[1741097949.366660] [ohm:760789:0]        ib_iface.c:1059 UCX  ERROR ibv_create_cq(cqe=256) failed: Connection timed out
[1741097949.388535] [ohm:760787:0]        ib_iface.c:1059 UCX  ERROR ibv_create_cq(cqe=256) failed: Connection timed out
[1741097949.395584] [ohm:760792:0]        ib_iface.c:1059 UCX  ERROR ibv_create_cq(cqe=256) failed: Connection timed out
[1741097949.398690] [ohm:760862:0]        ib_iface.c:1059 UCX  ERROR ibv_create_cq(cqe=256) failed: Connection timed out
[1741097949.416079] [ohm:760790:0]        ib_iface.c:1059 UCX  ERROR ibv_create_cq(cqe=256) failed: Connection timed out
[1741097949.435973] [ohm:760809:0]        ib_iface.c:1059 UCX  ERROR ibv_create_cq(cqe=256) failed: Connection timed out
[1741097949.442069] [ohm:760850:0]        ib_iface.c:1059 UCX  ERROR ibv_create_cq(cqe=256) failed: Connection timed out
[1741097949.442978] [ohm:760828:0]        ib_iface.c:1059 UCX  ERROR ibv_create_cq(cqe=256) failed: Connection timed out
[1741097949.446211] [ohm:760803:0]        ib_iface.c:1059 UCX  ERROR ibv_create_cq(cqe=256) failed: Connection timed out
[1741097949.448790] [ohm:760794:0]        ib_iface.c:1059 UCX  ERROR ibv_create_cq(cqe=256) failed: Connection timed out
[1741097949.453910] [ohm:760799:0]        ib_iface.c:1059 UCX  ERROR ibv_create_cq(cqe=256) failed: Connection timed out
[1741097949.464929] [ohm:760836:0]        ib_iface.c:1059 UCX  ERROR ibv_create_cq(cqe=256) failed: Connection timed out
[1741097949.479942] [ohm:760818:0]        ib_iface.c:1059 UCX  ERROR ibv_create_cq(cqe=256) failed: Connection timed out
[1741097949.484640] [ohm:760841:0]        ib_iface.c:1059 UCX  ERROR ibv_create_cq(cqe=256) failed: Connection timed out
[1741097949.488560] [ohm:760905:0]        ib_iface.c:1059 UCX  ERROR ibv_create_cq(cqe=256) failed: Connection timed out
[1741097949.491269] [ohm:760845:0]        ib_iface.c:1059 UCX  ERROR ibv_create_cq(cqe=256) failed: Connection timed out
[1741097949.491642] [ohm:760869:0]        ib_iface.c:1059 UCX  ERROR ibv_create_cq(cqe=256) failed: Connection timed out
[1741097949.511223] [ohm:760891:0]        ib_iface.c:1059 UCX  ERROR ibv_create_cq(cqe=256) failed: Connection timed out
[1741097949.520761] [ohm:760898:0]        ib_iface.c:1059 UCX  ERROR ibv_create_cq(cqe=256) failed: Connection timed out
[1741097949.528068] [ohm:760817:0]        ib_iface.c:1059 UCX  ERROR ibv_create_cq(cqe=256) failed: Connection timed out
[1741097949.540882] [ohm:760878:0]        ib_iface.c:1059 UCX  ERROR ibv_create_cq(cqe=256) failed: Connection timed out
[1741097949.557665] [ohm:760864:0]        ib_iface.c:1059 UCX  ERROR ibv_create_cq(cqe=256) failed: Connection timed out
[1741097949.560946] [ohm:760923:0]        ib_iface.c:1059 UCX  ERROR ibv_create_cq(cqe=256) failed: Connection timed out
[1741097949.561421] [ohm:760854:0]        ib_iface.c:1059 UCX  ERROR ibv_create_cq(cqe=256) failed: Connection timed out
[1741097949.570475] [ohm:760834:0]        ib_iface.c:1059 UCX  ERROR ibv_create_cq(cqe=256) failed: Connection timed out
[1741097949.594537] [ohm:760895:0]        ib_iface.c:1059 UCX  ERROR ibv_create_cq(cqe=256) failed: Connection timed out
[1741097949.598704] [ohm:760839:0]        ib_iface.c:1059 UCX  ERROR ibv_create_cq(cqe=256) failed: Connection timed out
[1741097949.607115] [ohm:760811:0]        ib_iface.c:1059 UCX  ERROR ibv_create_cq(cqe=256) failed: Connection timed out
[1741097949.624040] [ohm:760876:0]        ib_iface.c:1059 UCX  ERROR ibv_create_cq(cqe=256) failed: Connection timed out
[1741097949.625022] [ohm:760903:0]        ib_iface.c:1059 UCX  ERROR ibv_create_cq(cqe=256) failed: Connection timed out
[1741097949.628730] [ohm:760918:0]        ib_iface.c:1059 UCX  ERROR ibv_create_cq(cqe=256) failed: Connection timed out
[1741097949.637861] [ohm:760882:0]        ib_iface.c:1059 UCX  ERROR ibv_create_cq(cqe=256) failed: Connection timed out
[1741097949.637943] [ohm:760872:0]        ib_iface.c:1059 UCX  ERROR ibv_create_cq(cqe=256) failed: Connection timed out
[1741097949.639685] [ohm:760911:0]        ib_iface.c:1059 UCX  ERROR ibv_create_cq(cqe=256) failed: Connection timed out
[1741097949.644309] [ohm:760881:0]        ib_iface.c:1059 UCX  ERROR ibv_create_cq(cqe=256) failed: Connection timed out
[1741097949.649613] [ohm:760885:0]        ib_iface.c:1059 UCX  ERROR ibv_create_cq(cqe=256) failed: Connection timed out
[1741097949.654023] [ohm:760907:0]        ib_iface.c:1059 UCX  ERROR ibv_create_cq(cqe=256) failed: Connection timed out
[1741097949.657556] [ohm:760887:0]        ib_iface.c:1059 UCX  ERROR ibv_create_cq(cqe=256) failed: Connection timed out
[1741097949.672231] [ohm:760908:0]        ib_iface.c:1059 UCX  ERROR ibv_create_cq(cqe=256) failed: Connection timed out
[1741097949.672729] [ohm:760810:0]        ib_iface.c:1059 UCX  ERROR ibv_create_cq(cqe=256) failed: Connection timed out
[1741097949.675751] [ohm:760820:0]        ib_iface.c:1059 UCX  ERROR ibv_create_cq(cqe=256) failed: Connection timed out
[1741097949.679269] [ohm:760814:0]        ib_iface.c:1059 UCX  ERROR ibv_create_cq(cqe=256) failed: Connection timed out
[1741097949.684594] [ohm:760825:0]        ib_iface.c:1059 UCX  ERROR ibv_create_cq(cqe=256) failed: Connection timed out
[1741097949.694032] [ohm:760813:0]        ib_iface.c:1059 UCX  ERROR ibv_create_cq(cqe=256) failed: Connection timed out
[1741097949.695996] [ohm:760812:0]        ib_iface.c:1059 UCX  ERROR ibv_create_cq(cqe=256) failed: Connection timed out
[1741097949.708013] [ohm:760815:0]        ib_iface.c:1059 UCX  ERROR ibv_create_cq(cqe=256) failed: Connection timed out
[1741097949.712061] [ohm:760788:0]        ib_iface.c:1059 UCX  ERROR ibv_create_cq(cqe=256) failed: Connection timed out
[1741097949.714964] [ohm:760793:0]        ib_iface.c:1059 UCX  ERROR ibv_create_cq(cqe=256) failed: Connection timed out
[1741097949.716473] [ohm:760914:0]        ib_iface.c:1059 UCX  ERROR ibv_create_cq(cqe=256) failed: Connection timed out
[1741097949.721026] [ohm:760800:0]        ib_iface.c:1059 UCX  ERROR ibv_create_cq(cqe=256) failed: Connection timed out
[1741097949.722043] [ohm:760801:0]        ib_iface.c:1059 UCX  ERROR ibv_create_cq(cqe=256) failed: Connection timed out
[1741097949.725241] [ohm:760928:0]        ib_iface.c:1059 UCX  ERROR ibv_create_cq(cqe=256) failed: Connection timed out
[1741097949.725736] [ohm:760805:0]        ib_iface.c:1059 UCX  ERROR ibv_create_cq(cqe=256) failed: Connection timed out
[1741097949.726637] [ohm:760798:0]        ib_iface.c:1059 UCX  ERROR ibv_create_cq(cqe=256) failed: Connection timed out
[1741097949.732042] [ohm:760807:0]        ib_iface.c:1059 UCX  ERROR ibv_create_cq(cqe=256) failed: Connection timed out
[1741097949.732196] [ohm:760808:0]        ib_iface.c:1059 UCX  ERROR ibv_create_cq(cqe=256) failed: Connection timed out
[1741097949.732877] [ohm:760795:0]        ib_iface.c:1059 UCX  ERROR ibv_create_cq(cqe=256) failed: Connection timed out
[1741097949.734197] [ohm:760802:0]        ib_iface.c:1059 UCX  ERROR ibv_create_cq(cqe=256) failed: Connection timed out
[1741097949.735459] [ohm:760806:0]        ib_iface.c:1059 UCX  ERROR ibv_create_cq(cqe=256) failed: Connection timed out
[1741097949.735489] [ohm:760796:0]        ib_iface.c:1059 UCX  ERROR ibv_create_cq(cqe=256) failed: Connection timed out
[1741097949.735613] [ohm:760804:0]        ib_iface.c:1059 UCX  ERROR ibv_create_cq(cqe=256) failed: Connection timed out
[1741097949.735774] [ohm:760925:0]        ib_iface.c:1059 UCX  ERROR ibv_create_cq(cqe=256) failed: Connection timed out
[1741097949.735961] [ohm:760797:0]        ib_iface.c:1059 UCX  ERROR ibv_create_cq(cqe=256) failed: Connection timed out

--------------------------------
SUGGESTED CITATIONS FOR THIS RUN
--------------------------------

Below you find a list of papers that are relevant to this ORCA run
We neither can nor want to force you to cite these papers, but we appreciate if you do
You receive ORCA, which is the product of decades of hard work by many enthusiastic individuals, for free
The only thing we kindly ask in return is that you cite our papers,
We deeply appreciate it, if you show your appreciation for ORCA by not just citing the generic ORCA reference.

Please note that relegating all ORCA citations to the supporting information does *not* help us.
SI sections are not indexed - citations you put there will not count into any citation statistics
But we need these citations in order to attract the funding resources that allow us to do what we are doing

Therefore, if you are a happy ORCA user, please consider citing a few of the papers listed below in the main body of your paper

In addition to the list printed below, the program has created the file orca.bibtex that contains the list in bibtex format
You can import this file easily into all common literature databanks and citation aid programs


List of essential papers. We consider these as the minimum necessary citations

  1. Neese,F.
     Software update: the ORCA program system, version 5.0
     WIRES Comput. Molec. Sci., 2022 12(1)e1606
     doi.org/10.1002/wcms.1606

List of papers to cite with high priority. The work reported in these papers was absolutely
necessary for this run to complete.
Our perspective: the developers of density functionals and basis sets usually get cited in chemistry papers
Good! But without the algorithms to do something with them, the functionals or basis sets would not do anything.
Hence, in our opinion, the algorithm design and method developments papers are equally worthy of getting cited

  1. Neese,F.; Olbrich,G.
     Efficient use of the resolution of the identity approximation in time-dependent density functional calculations with hybrid density functionals
     Chem. Phys. Lett., 2002 362 170-178
     doi.org/10.1016/s0009-2614(02)01053-9
  2. Neese,F.
     An improvement of the resolution of the identity approximation for the formation of the Coulomb matrix
     J. Comp. Chem., 2003 24(14)1740-1747
     doi.org/10.1002/jcc.10318
  3. Neese,F.; Wennmohs,F.; Hansen,A.; Becker,U.
     Efficient, approximate and parallel Hartree-Fock and hybrid DFT calculations. A 'chain-of-spheres' algorithm for the Hartree-Fock exchange
     Chem. Phys., 2009 356(1-3)98-109
     doi.org/10.1016/j.chemphys.2008.10.036
  4. Petrenko,T.; Kossmann,S.; Neese,F.
     Efficient time-dependent density functional theory approximations for hybrid density functionals: Analytical gradients and parallelization
     J. Chem. Phys., 2011 134 054116
     doi.org/10.1063/1.3533441
  5. Helmich-Paris,B.; de Souza,B.; Neese,F.; Izsák,R.
     An improved chain of spheres for exchange algorithm
     J. Chem. Phys., 2021 155 104109
     doi.org/doi: 10.1063/5.0058766.
  6. Neese,F.
     The SHARK Integral Generation and Digestion System
     J. Comp. Chem., 2022  1-16
     doi.org/10.1002/jcc.26942
  7. Lehtola,S.; Steigemann,C.; Oliveira,M.; Marques,M.
     Recent developments in Libxc - A comprehensive library of functionals for density functional theory
     Software X, 2018 7 
     doi.org/10.1016/j.softx.2017.11.002
  8. Grimme,S.; Antony,J.; Ehrlich,S.; Krieg,H.
     A consistent and accurate ab initio parametrization of density functional dispersion correction (DFT-D) for the 94 elements H-Pu
     J. Chem. Phys., 2010 132 154104-XXXX
     doi.org/10.1063/1.3382344
  9. Grimme,S.; Ehrlich,S.; Goerigk,L.
     Effect of the damping function in dispersion corrected density functional theory
     J. Comput. Chem., 2011 32(7)1456-1465
     doi.org/10.1002/jcc.21759

List of suggested additional citations. These are papers that are important in the 'surrounding' of 
of this run, or papers that preceded the highly important papers. If you like your results we are grateful for a citation.

  1. Izsak,R.; Neese,F.
     An overlap fitted chain of spheres exchange method
     J. Chem. Phys., 2011 135 144105
     doi.org/10.1063/1.3646921
  2. Izsak,R.; Hansen,A.; Neese,F.
     The resolution of identity and chain of spheres approximations for the LPNO-CCSD singles Fock term
     Molec. Phys., 2012 110 2413-2417
     doi.org/10.1080/00268976.2012.687466
  3. Neese,F.
     The ORCA program system
     WIRES Comput. Molec. Sci., 2012 2(1)73-78
     doi.org/10.1002/wcms.81
  4. Izsak,R.; Neese,F.; Klopper,W.
     Robust fitting techniques in the chain of spheres approximation to the Fock exchange: The role of the complementary space
     J. Chem. Phys., 2013 139 
     doi.org/10.1063/1.4819264
  5. Neese,F.
     Software update: the ORCA program system, version 4.0
     WIRES Comput. Molec. Sci., 2018 8(1)1-6
     doi.org/10.1002/wcms.1327
  6. Neese,F.; Wennmohs,F.; Becker,U.; Riplinger,C.
     The ORCA quantum chemistry program package
     J. Chem. Phys., 2020 152 Art. No. L224108
     doi.org/10.1063/5.0004608

List of optional additional citations

  1. Neese,F.
     Approximate second-order SCF convergence for spin unrestricted wavefunctions
     Chem. Phys. Lett., 2000 325(1-3)93-98
     doi.org/10.1016/s0009-2614(00)00662-x

Timings for individual modules:

Sum of individual times          ...      290.808 sec (=   4.847 min)
Startup calculation              ...        6.405 sec (=   0.107 min)   2.2 %
SCF iterations                   ...      118.466 sec (=   1.974 min)  40.7 %
Property integrals               ...        4.245 sec (=   0.071 min)   1.5 %
Property calculations            ...        2.871 sec (=   0.048 min)   1.0 %
CIS module                       ...      158.822 sec (=   2.647 min)  54.6 %
                             ****ORCA TERMINATED NORMALLY****
TOTAL RUN TIME: 0 days 0 hours 4 minutes 52 seconds 994 msec
