7
Properties=species:S:1:pos:R:3:momenta:R:3:forces:R:3 Coordinates=T from=T ORCA-job=T orca=T E=T -153.825440110646=T energy=-4183.671160252694 free_energy=-4183.671160252694 stress="3.417724261101803e-07 -3.275962146806471e-06 -5.4490861305599316e-08 -3.275962146806471e-06 1.0195101228900353e-06 -1.1856362066570413e-06 -5.4490861305599316e-08 -1.1856362066570413e-06 3.0169170698587e-06" pbc="F F F"
O        0.34220078       1.14977484       0.13515732       0.63348330       2.04319103       0.31729412       0.56356626      -0.05329369       0.42842638
C        0.53993301      -0.19361352      -0.01505828      -0.93534728      -0.32003086       0.93481697       0.10151682      -1.80399592      -1.20647187
C       -0.73040695      -0.97561081      -0.11471483       0.03471467      -1.65877443      -0.57559039      -0.15065067       2.53271545      -0.31375214
H        1.21129358      -0.72360808       0.72680260       0.31531857       0.24864484       0.06980914      -0.25333439       1.13553811      -0.33603951
H        1.10944054      -0.36324327      -1.00639172      -0.23719768       0.04384739      -0.20707238      -0.16847302       0.35458873       1.05088102
H       -1.56911262      -0.31982023      -0.40347076       0.12032948       0.10984807      -0.10447077       0.09977689      -0.96115359       0.21137489
H       -0.77743983      -1.99211968       0.07424226       0.06869894      -0.46672605      -0.43478668      -0.19240190      -1.20439908       0.16558123
