30
Properties=species:S:1:pos:R:3:momenta:R:3:forces:R:3 Coordinates=T from=T ORCA-job=T orca=T E=T -908.766586193819=T energy=-24728.91216028386 free_energy=-24728.91216028386 stress="-1.0536452353856783e-06 -1.192232316194507e-06 -6.038683346576603e-07 -1.192232316194507e-06 -2.3075437645240638e-07 -8.947087367781353e-07 -6.038683346576603e-07 -8.947087367781353e-07 -1.467462224971168e-06" pbc="F F F"
O        4.04366570       0.10120528       0.51509808      -0.31120240       0.70317601      -0.04734877       0.10666910      -0.42257094      -0.15009247
O       -1.69562871       1.49404014      -2.45815017       0.21173381      -0.10515651      -0.11853264      -0.02865830      -0.23944685       0.35591600
O        1.15417661      -2.98873328      -1.03396611       0.37058943      -0.36393787       0.18853998      -0.60049303      -0.80387759      -0.50880179
O       -3.72626436      -1.27934523       0.46891147       0.60833142      -1.04724228       0.52730762      -0.51907439      -0.80984191       0.08711723
N        0.31280024      -1.27241792       0.23903772      -0.07865961       0.20907612      -0.10577054       0.19306469      -0.62765003      -0.65477924
N       -2.00666435      -0.06694091       1.25978690       0.14679332       0.63665932       0.60172265       0.70625160      -0.02210014       1.06349783
N        2.53930927      -1.47483601      -0.26855156      -0.61675123      -0.18531418       0.30964688       1.43538897       2.14167068       1.08580693
N       -2.58144343       0.02966538      -0.95562992       0.18566727       1.11424555      -0.17540680      -0.73688447      -1.06508513      -0.77514378
C        1.80744451       0.50862375       0.96344178       0.15825174      -0.00397045       0.43906270      -0.83784260      -1.80124932       0.14344724
C       -0.97139384       1.52366476      -0.20244441       1.09054327      -0.00712000      -0.10895586       1.39934397       0.58316055      -0.68383479
C        0.46040016      -0.16283627       1.14694663       0.00628346       0.07816253       0.15829073       0.35420303      -0.48725643      -0.54925452
C       -0.81586369       0.71559120       1.03170923       0.04103889      -0.15643052      -0.43541115      -0.12368610       0.75148874      -0.08451673
C        2.16036044       1.56645782       1.88612744      -0.43016992       0.70969158       0.29535462      -1.23901097       1.69761881      -0.09023941
C       -0.18419284       2.79788740      -0.32855672      -0.02503223      -1.05471545      -0.69189774      -0.68378073       0.93009123       0.73023999
C        2.89657825      -0.29150875       0.40981370      -0.39327496      -0.05210202      -0.40415334      -0.44030148       0.43092455      -0.42368742
C       -1.73444939       1.02950809      -1.32482374      -0.95161167       0.35091874      -0.00331967       0.28928266       0.95757814       0.08478957
C        1.32037266      -1.98297260      -0.41361923       0.39837279      -0.63640471      -0.59219417      -1.67397718       0.27809635       0.77860197
C       -2.81669104      -0.52820280       0.27994889       0.02910082      -0.23879869      -0.22272415       0.07552278       0.72895918       0.10037922
H        0.40962520      -0.55008290       2.18576660      -0.20585442       0.19519776       0.03605584       0.15546206       0.24538988      -0.09282776
H       -0.68680284       1.45061246       1.80984957      -0.09418363       0.06447283      -0.10787760      -0.24396780       0.06665986       0.49730782
H        2.74846236       1.17475620       2.68719087      -0.13496453      -0.00877287      -0.11848241       0.37894004      -0.13958919       0.54791674
H        2.72873857       2.37258935       1.40024656       0.09198393      -0.08601119      -0.04379403      -0.02289055      -0.27311029       0.19356510
H        1.20080355       2.00650094       2.28245831      -0.11947324       0.17471069       0.06630726       1.07631875      -0.21500587      -0.02062915
H       -0.78320368       3.72997387      -0.02665257       0.09915111      -0.22476286      -0.03273310       0.24950778      -1.04491560       0.00260372
H        0.68195030       2.78553492       0.32763233       0.06070789      -0.07722890       0.14470912      -0.07708311      -0.02102104      -0.08983000
H        0.13207552       3.09468851      -1.31316762       0.04127183      -0.17012668       0.33014568       0.02191330      -0.53904559      -0.54100732
H       -0.56884542      -1.76572303       0.23786101      -0.20865247       0.17028059      -0.00939840       0.20005428       0.06196084      -0.00317961
H       -2.05599233      -0.54189938       2.15435264      -0.13215437      -0.08219324       0.10926848      -0.25501106       0.07051823      -0.29519898
H        3.26799765      -1.97504157      -0.68208707       0.17251622       0.04755442       0.04367190       0.86344434      -0.58465548      -0.49903812
H       -3.15375539      -0.40299204      -1.66038141      -0.01035253       0.04614230      -0.03208310      -0.02270558       0.15230435      -0.20912827
