
                                 *****************
                                 * O   R   C   A *
                                 *****************

                                            #,                                       
                                            ###                                      
                                            ####                                     
                                            #####                                    
                                            ######                                   
                                           ########,                                 
                                     ,,################,,,,,                         
                               ,,#################################,,                 
                          ,,##########################################,,             
                       ,#########################################, ''#####,          
                    ,#############################################,,   '####,        
                  ,##################################################,,,,####,       
                ,###########''''           ''''###############################       
              ,#####''   ,,,,##########,,,,          '''####'''          '####       
            ,##' ,,,,###########################,,,                        '##       
           ' ,,###''''                  '''############,,,                           
         ,,##''                                '''############,,,,        ,,,,,,###''
      ,#''                                            '''#######################'''  
     '                                                          ''''####''''         
             ,#######,   #######,   ,#######,      ##                                
            ,#'     '#,  ##    ##  ,#'     '#,    #''#        ,####,   ,####,        
            ##       ##  ##   ,#'  ##            #'  '#       #'       #'  '#        
            ##       ##  #######   ##           ,######,      #####,   #    #        
            '#,     ,#'  ##    ##  '#,     ,#' ,#      #,     #,   #   #,  ,#        
             '#######'   ##     ##  '#######'  #'      '#     '####' # '####'        



                #########################################################
                #                        -***-                          #
                #          Department of theory and spectroscopy        #
                #                                                       #
                #                      Frank Neese                      #
                #                                                       #
                #     Directorship, Architecture, Infrastructure        #
                #                    SHARK, DRIVERS                     #
                #        Core code/Algorithms in most modules           #
                #                                                       #
                #        Max Planck Institute fuer Kohlenforschung      #
                #                Kaiser Wilhelm Platz 1                 #
                #                 D-45470 Muelheim/Ruhr                 #
                #                      Germany                          #
                #                                                       #
                #                  All rights reserved                  #
                #                        -***-                          #
                #########################################################


                         Program Version 6.0.0  -   RELEASE  -


 With contributions from (in alphabetic order):
   Daniel Aravena         : Magnetic Suceptibility
   Michael Atanasov       : Ab Initio Ligand Field Theory (pilot matlab implementation)
   Alexander A. Auer      : GIAO ZORA, VPT2 properties, NMR spectrum
   Ute Becker             : All parallelization in ORCA, NUMFREQ, NUMCALC
   Giovanni Bistoni       : ED, misc. LED, open-shell LED, HFLD
   Martin Brehm           : Molecular dynamics
   Dmytro Bykov           : pre 5.0 version of the SCF Hessian
   Marcos Casanova-Páez   : Triplet and SCS-CIS(D). UHF-(DLPNO)-IP/EA/STEOM-CCSD. UHF-CVS-IP/STEOM-CCSD
   Vijay G. Chilkuri      : MRCI spin determinant printing, contributions to CSF-ICE
   Pauline Colinet        : FMM embedding
   Dipayan Datta          : RHF DLPNO-CCSD density
   Achintya Kumar Dutta   : EOM-CC, STEOM-CC
   Nicolas Foglia         : Exact transition moments, OPA infrastructure, MCD improvements
   Dmitry Ganyushin       : Spin-Orbit,Spin-Spin,Magnetic field MRCI
   Miquel Garcia          : C-PCM and meta-GGA Hessian, CCSD/C-PCM, Gaussian charge scheme
   Tiago L. C. Gouveia    : GS-ROHF, GS-ROCIS
   Yang Guo               : DLPNO-NEVPT2, F12-NEVPT2, CIM, IAO-localization
   Andreas Hansen         : Spin unrestricted coupled pair/coupled cluster methods
   Ingolf Harden          : AUTO-CI MPn and infrastructure 
   Benjamin Helmich-Paris : MC-RPA, TRAH-(SCF,CASSCF), AVAS, COSX integrals, SCF dyn. polar.
   Lee Huntington         : MR-EOM, pCC
   Robert Izsak           : Overlap fitted RIJCOSX, COSX-SCS-MP3, EOM
   Riya Kayal             : Wick's Theorem for AUTO-CI, AUTO-CI UHF-CCSDT
   Emily Kempfer          : AUTO-CI, RHF CISDT and CCSDT
   Christian Kollmar      : KDIIS, OOCD, Brueckner-CCSD(T), CCSD density, CASPT2, CASPT2-K, improved NEVPT2
   Axel Koslowski         : Symmetry handling
   Simone Kossmann        : Meta GGA functionals, TD-DFT gradient, OOMP2, (MP2 Hessian; deprecated post 5.0)
   Lucas Lang             : DCDCAS
   Marvin Lechner         : AUTO-CI (C++ implementation), FIC-MRCC
   Spencer Leger          : CASSCF response
   Dagmar Lenk            : GEPOL surface, SMD, ORCA-2-JSON
   Dimitrios Liakos       : Extrapolation schemes; Compound Job, initial MDCI parallelization
   Dimitrios Manganas     : Further ROCIS development; embedding schemes. LFT, Crystal Embedding
   Dimitrios Pantazis     : SARC Basis sets
   Anastasios Papadopoulos: AUTO-CI, single reference methods and gradients
   Taras Petrenko         : pre 6.0 DFT Hessian and TD-DFT gradient, (ASA, deprecated), ECA, 1-Electron XAS/XES, NRVS
   Peter Pinski           : DLPNO-MP2, DLPNO-MP2 Gradient
   Christoph Reimann      : Effective Core Potentials
   Marius Retegan         : Local ZFS, SOC
   Christoph Riplinger    : Optimizer, TS searches, QM/MM, DLPNO-CCSD(T), (RO)-DLPNO pert. Triples
   Michael Roemelt        : Original ROCIS implementation
   Masaaki Saitow         : Open-shell DLPNO-CCSD energy and density
   Barbara Sandhoefer     : DKH picture change effects
   Kantharuban Sivalingam : CASSCF convergence/infrastructure, NEVPT2 and variants, FIC-MRCI
   Bernardo de Souza      : ESD, SOC TD-DFT
   Georgi Stoychev        : AutoAux, RI-MP2 NMR, DLPNO-MP2 response, X2C
   Van Anh Tran           : RI-MP2 g-tensors
   Willem Van den Heuvel  : Paramagnetic NMR
   Zikuan Wang            : NOTCH, Electric field optimization 
   Frank Wennmohs         : Technical directorship and infrastructure
   Hang Xu                : AUTO-CI-Response properties 


 We gratefully acknowledge several colleagues who have allowed us to
 interface, adapt or use parts of their codes:
   Stefan Grimme, W. Hujo, H. Kruse, P. Pracht,  : VdW corrections, initial TS optimization,
                  C. Bannwarth, S. Ehlert,         DFT functionals, gCP, sTDA/sTD-DF
                  L. Wittmann, M. Mueller
   Ed Valeev, F. Pavosevic, A. Kumar             : LibInt (2-el integral package), F12 methods
   Garnet Chan, S. Sharma, J. Yang, R. Olivares  : DMRG
   Ulf Ekstrom                                   : XCFun DFT Library
   Mihaly Kallay                                 : mrcc  (arbitrary order and MRCC methods)
   Frank Weinhold                                : gennbo (NPA and NBO analysis)
   Simon Mueller                                 : openCOSMO-RS
   Christopher J. Cramer and Donald G. Truhlar   : smd solvation model
   Lars Goerigk                                  : TD-DFT with DH, B97 family of functionals
   V. Asgeirsson, H. Jonsson                     : NEB implementation
   FAccTs GmbH                                   : IRC, NEB, NEB-TS, DLPNO-Multilevel, CI-OPT
                                                   MM, QMMM, 2- and 3-layer-ONIOM, Crystal-QMMM,
                                                   LR-CPCM, SF, NACMEs, symmetry and pop. for TD-DFT,
                                                   nearIR, NL-DFT gradient (VV10), updates on ESD,
                                                   ML-optimized integration grids, MBIS, APM,
                                                   GOAT, DOCKER, SOLVATOR, interface openCOSMO-RS
   S Lehtola, MJT Oliveira, MAL Marques          : LibXC Library
   Liviu Ungur et al                             : ANISO software


 Your calculation uses the libint2 library for the computation of 2-el integrals
 For citations please refer to: http://libint.valeyev.net

 Your ORCA version has been built with support for libXC version: 6.2.2
 For citations please refer to: https://libxc.gitlab.io

 This ORCA versions uses:
   CBLAS   interface :  Fast vector & matrix operations
   LAPACKE interface :  Fast linear algebra routines
   SCALAPACK package :  Parallel linear algebra routines
   Shared memory     :  Shared parallel matrices
   BLAS/LAPACK       :  OpenBLAS 0.3.27  USE64BITINT DYNAMIC_ARCH NO_AFFINITY Zen SINGLE_THREADED
        Core in use  :  Zen
   Copyright (c) 2011-2014, The OpenBLAS Project


Your calculation utilizes the atom-pairwise dispersion correction
with the Becke-Johnson damping scheme (D3BJ)


Warning: RI is on but no J-basis has been assigned. Assigning Def2/J (nothing to worry about!)
================================================================================

----- Orbital basis set information -----
Your calculation utilizes the basis: def2-TZVPPD
   F. Weigend and R. Ahlrichs, Phys. Chem. Chem. Phys. 7, 3297 (2005).
   D. Rappoport and F. Furche, J. Chem. Phys. 133, 134105 (2010)
   D. Rappoport, J. Chem. Phys. 155, 124102 (2021).

----- AuxJ basis set information -----
Your calculation utilizes the auxiliary basis: def2/J
   F. Weigend, Phys. Chem. Chem. Phys. 8, 1057 (2006).

================================================================================
                                        WARNINGS
                       Please study these warnings very carefully!
================================================================================

Using LibXC functional ID 531 : wB97M-V exchange-correlation functional
[ 1]  N. Mardirossian and M. Head-Gordon.,  J. Chem. Phys. 144, 214110 (2016)
Using LibXC functional ID 531 : wB97M-V exchange-correlation functional
[ 1]  N. Mardirossian and M. Head-Gordon.,  J. Chem. Phys. 144, 214110 (2016)

WARNING: B97M-V or wB97M-V functional requested.
  ===> : libXC variant has now been activated.
         Any manually given DFX/HFX/RangeSep scaling parameters are IGNORED!

Your calculation utilizes LibXC
 by S Lehtola, C Steigemann, MJT Oliveira & MAL Marques
Please cite in your paper:
 S Lehtola, C Steigemann, MJT Oliveira & MAL Marques, SoftwareX, 7, (2018), 1.
   


WARNING: your system is open-shell and RHF/RKS was chosen
  ===> : WILL SWITCH to UHF/UKS

INFO   : Checking CIS options ...

WARNING: CIS/ROCIS methods need fully converged wavefunctions
  ===> : Setting SCFConvForced true
         You can overwrite this default with %scf ConvForced false 


================================================================================
                                       INPUT FILE
================================================================================
NAME = orca.inp
|  1> ! Engrad def2-TZVPPD wB97M-D3BJ 
|  2> %pal nprocs 8 end%pal nprocs 64 end 
|  3> %tddft 
|  4>  Iroot 2 Nroots 3 
|  5> sf true 
|  6> end 
|  7> *xyz 0 3 
|  8> O   2.67487883 -0.80901321 -2.18106038
|  9> O   -1.65687213 1.59846813 -1.85354946
| 10> O   -1.44500771 -2.47060665 -0.88448854
| 11> O   -2.92450513 0.37590568 2.4052649
| 12> N   -0.17001981 -1.51586171 0.69267238
| 13> N   -0.67254606 1.03093317 2.1101286
| 14> N   0.65538144 -1.66677154 -1.47075826
| 15> N   -2.22957007 0.70017215 0.26826482
| 16> C   2.18307251 -0.66187869 0.09772274
| 17> C   -0.03268027 1.49007067 -0.23173987
| 18> C   0.97756341 -0.61347985 1.00322853
| 19> C   0.39321684 0.84770676 1.10562056
| 20> C   3.4637503 -0.17436347 0.50864696
| 21> C   0.92913817 2.24969915 -0.98714692
| 22> C   1.92914732 -1.09533576 -1.26993243
| 23> C   -1.3723555 1.30605237 -0.6600964
| 24> C   -0.42114404 -1.94174256 -0.54563164
| 25> C   -1.98861862 0.64315954 1.65125062
| 26> H   1.16820619 -0.8856992 2.09556636
| 27> H   1.16027513 1.49719322 1.4601389
| 28> H   4.16671263 -0.29474445 -0.2407009
| 29> H   3.43237847 0.8442193 0.81396458
| 30> H   3.78165818 -0.72395217 1.41884822
| 31> H   1.53949434 1.4560138 -1.54608351
| 32> H   0.42460629 2.70175269 -1.79495689
| 33> H   1.51290313 2.96478591 -0.451278
| 34> H   -0.80292502 -1.76980829 1.47049519
| 35> H   -0.57015731 0.60850153 3.00782625
| 36> H   0.30795258 -1.75949879 -2.43243345
| 37> H   -3.21009227 0.57134587 0.0447955
| 38> *
| 39> 
| 40>                          ****END OF INPUT****
================================================================================

                     *******************************
                     * Energy+Gradient Calculation *
                     *******************************

---------------------------------
CARTESIAN COORDINATES (ANGSTROEM)
---------------------------------
  O      2.674879   -0.809013   -2.181060
  O     -1.656872    1.598468   -1.853549
  O     -1.445008   -2.470607   -0.884489
  O     -2.924505    0.375906    2.405265
  N     -0.170020   -1.515862    0.692672
  N     -0.672546    1.030933    2.110129
  N      0.655381   -1.666772   -1.470758
  N     -2.229570    0.700172    0.268265
  C      2.183073   -0.661879    0.097723
  C     -0.032680    1.490071   -0.231740
  C      0.977563   -0.613480    1.003229
  C      0.393217    0.847707    1.105621
  C      3.463750   -0.174363    0.508647
  C      0.929138    2.249699   -0.987147
  C      1.929147   -1.095336   -1.269932
  C     -1.372356    1.306052   -0.660096
  C     -0.421144   -1.941743   -0.545632
  C     -1.988619    0.643160    1.651251
  H      1.168206   -0.885699    2.095566
  H      1.160275    1.497193    1.460139
  H      4.166713   -0.294744   -0.240701
  H      3.432378    0.844219    0.813965
  H      3.781658   -0.723952    1.418848
  H      1.539494    1.456014   -1.546084
  H      0.424606    2.701753   -1.794957
  H      1.512903    2.964786   -0.451278
  H     -0.802925   -1.769808    1.470495
  H     -0.570157    0.608502    3.007826
  H      0.307953   -1.759499   -2.432433
  H     -3.210092    0.571346    0.044795

----------------------------
CARTESIAN COORDINATES (A.U.)
----------------------------
  NO LB      ZA    FRAG     MASS         X           Y           Z
   0 O     8.0000    0    15.999    5.054788   -1.528813   -4.121607
   1 O     8.0000    0    15.999   -3.131035    3.020667   -3.502701
   2 O     8.0000    0    15.999   -2.730669   -4.668770   -1.671441
   3 O     8.0000    0    15.999   -5.526514    0.710359    4.545292
   4 N     7.0000    0    14.007   -0.321291   -2.864563    1.308961
   5 N     7.0000    0    14.007   -1.270928    1.948181    3.987565
   6 N     7.0000    0    14.007    1.238491   -3.149742   -2.779330
   7 N     7.0000    0    14.007   -4.213277    1.323134    0.506947
   8 C     6.0000    0    12.011    4.125409   -1.250769    0.184669
   9 C     6.0000    0    12.011   -0.061757    2.815825   -0.437925
  10 C     6.0000    0    12.011    1.847327   -1.159309    1.895827
  11 C     6.0000    0    12.011    0.743072    1.601934    2.089320
  12 C     6.0000    0    12.011    6.545539   -0.329499    0.961203
  13 C     6.0000    0    12.011    1.755817    4.251315   -1.865437
  14 C     6.0000    0    12.011    3.645560   -2.069885   -2.399825
  15 C     6.0000    0    12.011   -2.593376    2.468081   -1.247401
  16 C     6.0000    0    12.011   -0.795847   -3.669362   -1.031094
  17 C     6.0000    0    12.011   -3.757945    1.215395    3.120411
  18 H     1.0000    0     1.008    2.207590   -1.673729    3.960047
  19 H     1.0000    0     1.008    2.192602    2.829285    2.759263
  20 H     1.0000    0     1.008    7.873946   -0.556986   -0.454859
  21 H     1.0000    0     1.008    6.486255    1.595343    1.538170
  22 H     1.0000    0     1.008    7.146298   -1.368071    2.681235
  23 H     1.0000    0     1.008    2.909223    2.751467   -2.921674
  24 H     1.0000    0     1.008    0.802390    5.105573   -3.391977
  25 H     1.0000    0     1.008    2.858973    5.602633   -0.852792
  26 H     1.0000    0     1.008   -1.517308   -3.344453    2.778833
  27 H     1.0000    0     1.008   -1.077441    1.149901    5.683968
  28 H     1.0000    0     1.008    0.581946   -3.324971   -4.596633
  29 H     1.0000    0     1.008   -6.066195    1.079687    0.084651

--------------------------------
INTERNAL COORDINATES (ANGSTROEM)
--------------------------------
 O      0   0   0     0.000000000000     0.00000000     0.00000000
 O      1   0   0     4.966618183898     0.00000000     0.00000000
 O      2   1   0     4.188237715838    60.01304354     0.00000000
 O      3   2   1     4.594999755889    63.09643131   121.37684933
 N      3   2   1     2.241554954307    77.15928436    65.19340935
 N      4   3   2     2.363786390770    77.02803359   293.85829454
 N      1   2   3     2.306219452389    52.86020973   358.10606533
 N      4   3   2     2.270430096502    46.84740202   359.32665050
 C      1   2   3     2.335888381615    73.82968903   290.62778190
 C      2   1   3     2.297828443039    53.64337682    94.22535620
 C      5   3   2     1.492543262484   147.27220495   306.47927124
 C      6   4   3     1.475960324251   137.60339337    16.22568132
 C      9   1   2     1.430617141696    96.49989421   228.83189924
 C     10   2   1     1.439711759465    94.41575137    66.83490392
 C      1   2   3     1.211713757006    61.84812287   322.79285991
 C      2   1   3     1.261264007203    75.71589083    66.67971790
 C      3   2   1     1.201173609065    71.37508070    35.15999014
 C      4   3   2     1.231196864733    56.71929469   318.97605881
 H     11   5   3     1.141774924812   100.56184561   195.41802750
 H     12   6   4     1.065783437372   102.57132177   172.36879250
 H     13   9   1     1.034490131916   111.13630854   345.66472086
 H     13   9   1     1.063820426642   112.47744054   109.28562522
 H     13   9   1     1.109765512637   108.86037583   224.37762930
 H     14  10   2     1.146682693993   104.24992208   267.27746664
 H     14  10   2     1.054258871717   107.97281768    13.26854156
 H     14  10   2     1.067373459607   117.09315411   139.43051796
 H      5   3   2     1.034440038908    94.38657960   114.20212956
 H      6   4   3     0.997393110772    82.41810960   250.69545827
 H      7   1   2     1.026705569633    92.37422628    78.07480748
 H      8   4   3     1.013882898609    83.87484900    90.14971109

---------------------------
INTERNAL COORDINATES (A.U.)
---------------------------
 O      0   0   0     0.000000000000     0.00000000     0.00000000
 O      1   0   0     9.385548179321     0.00000000     0.00000000
 O      2   1   0     7.914622266693    60.01304354     0.00000000
 O      3   2   1     8.683291124065    63.09643131   121.37684933
 N      3   2   1     4.235924977774    77.15928436    65.19340935
 N      4   3   2     4.466908917645    77.02803359   293.85829454
 N      1   2   3     4.358123169737    52.86020973   358.10606533
 N      4   3   2     4.290491088602    46.84740202   359.32665050
 C      1   2   3     4.414189320661    73.82968903   290.62778190
 C      2   1   3     4.342266460079    53.64337682    94.22535620
 C      5   3   2     2.820498009124   147.27220495   306.47927124
 C      6   4   3     2.789160797368   137.60339337    16.22568132
 C      9   1   2     2.703474600298    96.49989421   228.83189924
 C     10   2   1     2.720660937174    94.41575137    66.83490392
 C      1   2   3     2.289807153445    61.84812287   322.79285991
 C      2   1   3     2.383443556186    75.71589083    66.67971790
 C      3   2   1     2.269889160427    71.37508070    35.15999014
 C      4   3   2     2.326624891288    56.71929469   318.97605881
 H     11   5   3     2.157641914473   100.56184561   195.41802750
 H     12   6   4     2.014038814703   102.57132177   172.36879250
 H     13   9   1     1.954903037565   111.13630854   345.66472086
 H     13   9   1     2.010329262025   112.47744054   109.28562522
 H     13   9   1     2.097152891755   108.86037583   224.37762930
 H     14  10   2     2.166916254153   104.24992208   267.27746664
 H     14  10   2     1.992260541802   107.97281768    13.26854156
 H     14  10   2     2.017043521273   117.09315411   139.43051796
 H      5   3   2     1.954808375498    94.38657960   114.20212956
 H      6   4   3     1.884799827219    82.41810960   250.69545827
 H      7   1   2     1.940192346778    92.37422628    78.07480748
 H      8   4   3     1.915961010238    83.87484900    90.14971109

---------------------
BASIS SET INFORMATION
---------------------
There are 4 groups of distinct atoms

 Group   1 Type O   : 12s7p3d1f contracted to 6s4p3d1f pattern {621111/4111/111/1}
 Group   2 Type N   : 12s6p3d1f contracted to 6s3p3d1f pattern {621111/411/111/1}
 Group   3 Type C   : 12s6p3d1f contracted to 6s3p3d1f pattern {621111/411/111/1}
 Group   4 Type H   : 5s3p1d contracted to 3s3p1d pattern {311/111/1}

Atom   0O    basis set group =>   1
Atom   1O    basis set group =>   1
Atom   2O    basis set group =>   1
Atom   3O    basis set group =>   1
Atom   4N    basis set group =>   2
Atom   5N    basis set group =>   2
Atom   6N    basis set group =>   2
Atom   7N    basis set group =>   2
Atom   8C    basis set group =>   3
Atom   9C    basis set group =>   3
Atom  10C    basis set group =>   3
Atom  11C    basis set group =>   3
Atom  12C    basis set group =>   3
Atom  13C    basis set group =>   3
Atom  14C    basis set group =>   3
Atom  15C    basis set group =>   3
Atom  16C    basis set group =>   3
Atom  17C    basis set group =>   3
Atom  18H    basis set group =>   4
Atom  19H    basis set group =>   4
Atom  20H    basis set group =>   4
Atom  21H    basis set group =>   4
Atom  22H    basis set group =>   4
Atom  23H    basis set group =>   4
Atom  24H    basis set group =>   4
Atom  25H    basis set group =>   4
Atom  26H    basis set group =>   4
Atom  27H    basis set group =>   4
Atom  28H    basis set group =>   4
Atom  29H    basis set group =>   4
---------------------------------
AUXILIARY/J BASIS SET INFORMATION
---------------------------------
There are 4 groups of distinct atoms

 Group   1 Type O   : 12s5p4d2f1g contracted to 6s4p3d1f1g pattern {711111/2111/211/2/1}
 Group   2 Type N   : 12s5p4d2f1g contracted to 6s4p3d1f1g pattern {711111/2111/211/2/1}
 Group   3 Type C   : 12s5p4d2f1g contracted to 6s4p3d1f1g pattern {711111/2111/211/2/1}
 Group   4 Type H   : 5s2p1d contracted to 3s1p1d pattern {311/2/1}

Atom   0O    basis set group =>   1
Atom   1O    basis set group =>   1
Atom   2O    basis set group =>   1
Atom   3O    basis set group =>   1
Atom   4N    basis set group =>   2
Atom   5N    basis set group =>   2
Atom   6N    basis set group =>   2
Atom   7N    basis set group =>   2
Atom   8C    basis set group =>   3
Atom   9C    basis set group =>   3
Atom  10C    basis set group =>   3
Atom  11C    basis set group =>   3
Atom  12C    basis set group =>   3
Atom  13C    basis set group =>   3
Atom  14C    basis set group =>   3
Atom  15C    basis set group =>   3
Atom  16C    basis set group =>   3
Atom  17C    basis set group =>   3
Atom  18H    basis set group =>   4
Atom  19H    basis set group =>   4
Atom  20H    basis set group =>   4
Atom  21H    basis set group =>   4
Atom  22H    basis set group =>   4
Atom  23H    basis set group =>   4
Atom  24H    basis set group =>   4
Atom  25H    basis set group =>   4
Atom  26H    basis set group =>   4
Atom  27H    basis set group =>   4
Atom  28H    basis set group =>   4
Atom  29H    basis set group =>   4
[1741400884.026068] [ohm:1425763:0]        ib_iface.c:1059 UCX  ERROR ibv_create_cq(cqe=256) failed: Connection timed out
[1741400884.046292] [ohm:1425762:0]        ib_iface.c:1059 UCX  ERROR ibv_create_cq(cqe=256) failed: Connection timed out
[1741400884.047603] [ohm:1425761:0]        ib_iface.c:1059 UCX  ERROR ibv_create_cq(cqe=256) failed: Connection timed out
[1741400884.054825] [ohm:1425779:0]        ib_iface.c:1059 UCX  ERROR ibv_create_cq(cqe=256) failed: Connection timed out
[1741400884.070621] [ohm:1425764:0]        ib_iface.c:1059 UCX  ERROR ibv_create_cq(cqe=256) failed: Connection timed out
[1741400884.071689] [ohm:1425771:0]        ib_iface.c:1059 UCX  ERROR ibv_create_cq(cqe=256) failed: Connection timed out
[1741400884.071899] [ohm:1425767:0]        ib_iface.c:1059 UCX  ERROR ibv_create_cq(cqe=256) failed: Connection timed out
[1741400884.094032] [ohm:1425774:0]        ib_iface.c:1059 UCX  ERROR ibv_create_cq(cqe=256) failed: Connection timed out
[1741400884.103391] [ohm:1425777:0]        ib_iface.c:1059 UCX  ERROR ibv_create_cq(cqe=256) failed: Connection timed out
[1741400884.108204] [ohm:1425786:0]        ib_iface.c:1059 UCX  ERROR ibv_create_cq(cqe=256) failed: Connection timed out
[1741400884.110837] [ohm:1425770:0]        ib_iface.c:1059 UCX  ERROR ibv_create_cq(cqe=256) failed: Connection timed out
[1741400884.116596] [ohm:1425766:0]        ib_iface.c:1059 UCX  ERROR ibv_create_cq(cqe=256) failed: Connection timed out
[1741400884.116774] [ohm:1425783:0]        ib_iface.c:1059 UCX  ERROR ibv_create_cq(cqe=256) failed: Connection timed out
[1741400884.121647] [ohm:1425768:0]        ib_iface.c:1059 UCX  ERROR ibv_create_cq(cqe=256) failed: Connection timed out
[1741400884.134974] [ohm:1425788:0]        ib_iface.c:1059 UCX  ERROR ibv_create_cq(cqe=256) failed: Connection timed out
[1741400884.160586] [ohm:1425787:0]        ib_iface.c:1059 UCX  ERROR ibv_create_cq(cqe=256) failed: Connection timed out
[1741400884.170811] [ohm:1425880:0]        ib_iface.c:1059 UCX  ERROR ibv_create_cq(cqe=256) failed: Connection timed out
[1741400884.172218] [ohm:1425773:0]        ib_iface.c:1059 UCX  ERROR ibv_create_cq(cqe=256) failed: Connection timed out
[1741400884.186305] [ohm:1425892:0]        ib_iface.c:1059 UCX  ERROR ibv_create_cq(cqe=256) failed: Connection timed out
[1741400884.189936] [ohm:1425775:0]        ib_iface.c:1059 UCX  ERROR ibv_create_cq(cqe=256) failed: Connection timed out
[1741400884.190089] [ohm:1425887:0]        ib_iface.c:1059 UCX  ERROR ibv_create_cq(cqe=256) failed: Connection timed out
[1741400884.191276] [ohm:1425782:0]        ib_iface.c:1059 UCX  ERROR ibv_create_cq(cqe=256) failed: Connection timed out
[1741400884.200626] [ohm:1425765:0]        ib_iface.c:1059 UCX  ERROR ibv_create_cq(cqe=256) failed: Connection timed out
[1741400884.208577] [ohm:1425854:0]        ib_iface.c:1059 UCX  ERROR ibv_create_cq(cqe=256) failed: Connection timed out
[1741400884.215632] [ohm:1425830:0]        ib_iface.c:1059 UCX  ERROR ibv_create_cq(cqe=256) failed: Connection timed out
[1741400884.216399] [ohm:1425828:0]        ib_iface.c:1059 UCX  ERROR ibv_create_cq(cqe=256) failed: Connection timed out
[1741400884.234267] [ohm:1425820:0]        ib_iface.c:1059 UCX  ERROR ibv_create_cq(cqe=256) failed: Connection timed out
[1741400884.255565] [ohm:1425769:0]        ib_iface.c:1059 UCX  ERROR ibv_create_cq(cqe=256) failed: Connection timed out
[1741400884.263473] [ohm:1425784:0]        ib_iface.c:1059 UCX  ERROR ibv_create_cq(cqe=256) failed: Connection timed out
[1741400884.286692] [ohm:1425834:0]        ib_iface.c:1059 UCX  ERROR ibv_create_cq(cqe=256) failed: Connection timed out
[1741400884.291059] [ohm:1425860:0]        ib_iface.c:1059 UCX  ERROR ibv_create_cq(cqe=256) failed: Connection timed out
[1741400884.292748] [ohm:1425897:0]        ib_iface.c:1059 UCX  ERROR ibv_create_cq(cqe=256) failed: Connection timed out
[1741400884.298171] [ohm:1425815:0]        ib_iface.c:1059 UCX  ERROR ibv_create_cq(cqe=256) failed: Connection timed out
[1741400884.306431] [ohm:1425865:0]        ib_iface.c:1059 UCX  ERROR ibv_create_cq(cqe=256) failed: Connection timed out
[1741400884.316528] [ohm:1425871:0]        ib_iface.c:1059 UCX  ERROR ibv_create_cq(cqe=256) failed: Connection timed out
[1741400884.317320] [ohm:1425910:0]        ib_iface.c:1059 UCX  ERROR ibv_create_cq(cqe=256) failed: Connection timed out
[1741400884.325152] [ohm:1425789:0]        ib_iface.c:1059 UCX  ERROR ibv_create_cq(cqe=256) failed: Connection timed out
[1741400884.327789] [ohm:1425846:0]        ib_iface.c:1059 UCX  ERROR ibv_create_cq(cqe=256) failed: Connection timed out
[1741400884.334443] [ohm:1425780:0]        ib_iface.c:1059 UCX  ERROR ibv_create_cq(cqe=256) failed: Connection timed out
[1741400884.341729] [ohm:1425791:0]        ib_iface.c:1059 UCX  ERROR ibv_create_cq(cqe=256) failed: Connection timed out
[1741400884.347080] [ohm:1425772:0]        ib_iface.c:1059 UCX  ERROR ibv_create_cq(cqe=256) failed: Connection timed out
[1741400884.351421] [ohm:1425781:0]        ib_iface.c:1059 UCX  ERROR ibv_create_cq(cqe=256) failed: Connection timed out
[1741400884.352596] [ohm:1425908:0]        ib_iface.c:1059 UCX  ERROR ibv_create_cq(cqe=256) failed: Connection timed out
[1741400884.353005] [ohm:1425809:0]        ib_iface.c:1059 UCX  ERROR ibv_create_cq(cqe=256) failed: Connection timed out
[1741400884.354093] [ohm:1425778:0]        ib_iface.c:1059 UCX  ERROR ibv_create_cq(cqe=256) failed: Connection timed out
[1741400884.356254] [ohm:1425868:0]        ib_iface.c:1059 UCX  ERROR ibv_create_cq(cqe=256) failed: Connection timed out
[1741400884.366329] [ohm:1425863:0]        ib_iface.c:1059 UCX  ERROR ibv_create_cq(cqe=256) failed: Connection timed out
[1741400884.368873] [ohm:1425804:0]        ib_iface.c:1059 UCX  ERROR ibv_create_cq(cqe=256) failed: Connection timed out
[1741400884.371334] [ohm:1425813:0]        ib_iface.c:1059 UCX  ERROR ibv_create_cq(cqe=256) failed: Connection timed out
[1741400884.374323] [ohm:1425776:0]        ib_iface.c:1059 UCX  ERROR ibv_create_cq(cqe=256) failed: Connection timed out
[1741400884.378826] [ohm:1425877:0]        ib_iface.c:1059 UCX  ERROR ibv_create_cq(cqe=256) failed: Connection timed out
[1741400884.378783] [ohm:1425899:0]        ib_iface.c:1059 UCX  ERROR ibv_create_cq(cqe=256) failed: Connection timed out
[1741400884.382502] [ohm:1425806:0]        ib_iface.c:1059 UCX  ERROR ibv_create_cq(cqe=256) failed: Connection timed out
[1741400884.382570] [ohm:1425890:0]        ib_iface.c:1059 UCX  ERROR ibv_create_cq(cqe=256) failed: Connection timed out
[1741400884.382664] [ohm:1425852:0]        ib_iface.c:1059 UCX  ERROR ibv_create_cq(cqe=256) failed: Connection timed out
[1741400884.384072] [ohm:1425795:0]        ib_iface.c:1059 UCX  ERROR ibv_create_cq(cqe=256) failed: Connection timed out
[1741400884.385048] [ohm:1425798:0]        ib_iface.c:1059 UCX  ERROR ibv_create_cq(cqe=256) failed: Connection timed out
[1741400884.385912] [ohm:1425822:0]        ib_iface.c:1059 UCX  ERROR ibv_create_cq(cqe=256) failed: Connection timed out
[1741400884.386169] [ohm:1425873:0]        ib_iface.c:1059 UCX  ERROR ibv_create_cq(cqe=256) failed: Connection timed out
[1741400884.389545] [ohm:1425884:0]        ib_iface.c:1059 UCX  ERROR ibv_create_cq(cqe=256) failed: Connection timed out
[1741400884.391312] [ohm:1425785:0]        ib_iface.c:1059 UCX  ERROR ibv_create_cq(cqe=256) failed: Connection timed out
[1741400884.391318] [ohm:1425839:0]        ib_iface.c:1059 UCX  ERROR ibv_create_cq(cqe=256) failed: Connection timed out
[1741400884.391399] [ohm:1425904:0]        ib_iface.c:1059 UCX  ERROR ibv_create_cq(cqe=256) failed: Connection timed out
[1741400884.391801] [ohm:1425857:0]        ib_iface.c:1059 UCX  ERROR ibv_create_cq(cqe=256) failed: Connection timed out


           ************************************************************
           *        Program running with 64 parallel MPI-processes    *
           *              working on a common directory               *
           ************************************************************
------------------------------------------------------------------------------
                             ORCA STARTUP CALCULATIONS
                           -- RI-GTO INTEGRALS CHOSEN --
------------------------------------------------------------------------------
------------------------------------------------------------------------------
                   ___                                                        
                  /   \      - P O W E R E D   B Y -                         
                 /     \                                                     
                 |  |  |   _    _      __       _____    __    __             
                 |  |  |  | |  | |    /  \     |  _  \  |  |  /  |          
                  \  \/   | |  | |   /    \    | | | |  |  | /  /          
                 / \  \   | |__| |  /  /\  \   | |_| |  |  |/  /          
                |  |  |   |  __  | /  /__\  \  |    /   |      \           
                |  |  |   | |  | | |   __   |  |    \   |  |\   \          
                \     /   | |  | | |  |  |  |  | |\  \  |  | \   \       
                 \___/    |_|  |_| |__|  |__|  |_| \__\ |__|  \__/        
                                                                              
                      - O R C A' S   B I G   F R I E N D -                    
                                      &                                       
                       - I N T E G R A L  F E E D E R -                       
                                                                              
 v1 FN, 2020, v2 2021, v3 2022-2024                                           
------------------------------------------------------------------------------


----------------------
SHARK INTEGRAL PACKAGE
----------------------

Number of atoms                             ...     30
Number of basis functions                   ...    882
Number of shells                            ...    322
Maximum angular momentum                    ...      3
Integral batch strategy                     ... SHARK/LIBINT Hybrid
RI-J (if used) integral strategy            ... SPLIT-RIJ (Revised 2003 algorithm where possible)
Printlevel                                  ...      1
Contraction scheme used                     ... SEGMENTED contraction
Prescreening option                         ... SCHWARTZ
   Thresh                                   ... 2.500e-11
   Tcut                                     ... 2.500e-12
   Tpresel                                  ... 2.500e-12 
Coulomb Range Separation                    ... NOT USED
Exchange Range Separation                   ... Long Range
   Mu parameter                             ... 3.000e-01
   Scaling (regular/separated)              ... 1.500e-01 8.500e-01
Multipole approximations                    ... NOT USED
Finite Nucleus Model                        ... NOT USED
CABS basis                                  ... NOT available
Auxiliary Coulomb fitting basis             ... AVAILABLE
   # of basis functions in Aux-J            ...   1014
   # of shells in Aux-J                     ...    330
   Maximum angular momentum in Aux-J        ...      4
Auxiliary J/K fitting basis                 ... NOT available
Auxiliary Correlation fitting basis         ... NOT available
Auxiliary 'external' fitting basis          ... NOT available

Checking pre-screening integrals            ... done (  0.0 sec) Dimension = 322
Check shell pair data                       ... done (  0.0 sec)
Shell pair information
Shell pair cut-off parameter TPreSel        ...   2.5e-12
Total number of shell pairs                 ...     52003
Shell pairs after pre-screening             ...     45109
Total number of primitive shell pairs       ...    129718
Primitive shell pairs kept                  ...     84269
          la=0 lb=0:   8744 shell pairs
          la=1 lb=0:  11947 shell pairs
          la=1 lb=1:   4122 shell pairs
          la=2 lb=0:   8084 shell pairs
          la=2 lb=1:   5612 shell pairs
          la=2 lb=2:   1934 shell pairs
          la=3 lb=0:   2069 shell pairs
          la=3 lb=1:   1467 shell pairs
          la=3 lb=2:    991 shell pairs
          la=3 lb=3:    139 shell pairs

Calculating one electron integrals          ... done (  0.2 sec)
Calculating RI/J V-Matrix + Cholesky decomp.... done (  0.1 sec)
Calculating Nuclear repulsion               ... done (  0.0 sec) ENN=   1439.077913134184 Eh

Diagonalization of the overlap matrix:
Smallest eigenvalue                        ... 5.963e-07
Time for diagonalization                   ...    0.126 sec
Threshold for overlap eigenvalues          ... 1.000e-07
Number of eigenvalues below threshold      ... 0

IMPORTANT:
Smallest eigenvalue of S below the DiffSThresh (1.000e-06) while
Thresh>1e-12 and/or TCut>1e-13! In order to avoid SCF convergence issues,
Thresh will be set to at least 1e-12 and TCut to at least 1e-13.
This can be turned off by adding %SCF DiffSThresh -1 END to the input.

Time for construction of square roots      ...    0.138 sec
Total time needed                          ...    0.279 sec

-------------------
DFT GRID GENERATION
-------------------

General Integration Accuracy     IntAcc      ... 4.388
Radial Grid Type                 RadialGrid  ... OptM3 with GC (2021)
Angular Grid (max. ang.)         AngularGrid ... 4 (Lebedev-302)
Angular grid pruning method      GridPruning ... 4 (adaptive)
Weight generation scheme         WeightScheme... mBecke (2022)
Basis function cutoff            BFCut       ... 1.0000e-11
Integration weight cutoff        WCut        ... 1.0000e-14
Partially contracted basis set               ... off
Rotationally invariant grid construction     ... off
Angular grids for H and He will be reduced by one unit
Diffuse basis detected: some atoms will have their outermost
                        angular grid increased by 1.

Total number of grid points                  ...   151836
Total number of batches                      ...     2385
Average number of points per batch           ...       63
Average number of grid points per atom       ...     5061

--------------------
COSX GRID GENERATION
--------------------

GRIDX 1
-------
General Integration Accuracy     IntAcc      ... 3.816
Radial Grid Type                 RadialGrid  ... OptM3 with GC (2021)
Angular Grid (max. ang.)         AngularGrid ... 1 (Lebedev-50)
Angular grid pruning method      GridPruning ... 4 (adaptive)
Weight generation scheme         WeightScheme... mBecke (2022)
Basis function cutoff            BFCut       ... 1.0000e-11
Integration weight cutoff        WCut        ... 1.0000e-14
Partially contracted basis set               ... on
Rotationally invariant grid construction     ... off
Angular grids for H and He will be reduced by one unit
Diffuse basis detected: some atoms will have their outermost
                        angular grid increased by 1.

Total number of grid points                  ...    19005
Total number of batches                      ...      166
Average number of points per batch           ...      114
Average number of grid points per atom       ...      634
UseSFitting                                  ... on

GRIDX 2
-------
General Integration Accuracy     IntAcc      ... 4.020
Radial Grid Type                 RadialGrid  ... OptM3 with GC (2021)
Angular Grid (max. ang.)         AngularGrid ... 2 (Lebedev-110)
Angular grid pruning method      GridPruning ... 4 (adaptive)
Weight generation scheme         WeightScheme... mBecke (2022)
Basis function cutoff            BFCut       ... 1.0000e-11
Integration weight cutoff        WCut        ... 1.0000e-14
Partially contracted basis set               ... on
Rotationally invariant grid construction     ... off
Angular grids for H and He will be reduced by one unit
Diffuse basis detected: some atoms will have their outermost
                        angular grid increased by 1.

Total number of grid points                  ...    45778
Total number of batches                      ...      372
Average number of points per batch           ...      123
Average number of grid points per atom       ...     1526
UseSFitting                                  ... on

GRIDX 3
-------
General Integration Accuracy     IntAcc      ... 4.338
Radial Grid Type                 RadialGrid  ... OptM3 with GC (2021)
Angular Grid (max. ang.)         AngularGrid ... 3 (Lebedev-194)
Angular grid pruning method      GridPruning ... 4 (adaptive)
Weight generation scheme         WeightScheme... mBecke (2022)
Basis function cutoff            BFCut       ... 1.0000e-11
Integration weight cutoff        WCut        ... 1.0000e-14
Partially contracted basis set               ... on
Rotationally invariant grid construction     ... off
Angular grids for H and He will be reduced by one unit
Diffuse basis detected: some atoms will have their outermost
                        angular grid increased by 1.

Total number of grid points                  ...   100832
Total number of batches                      ...      802
Average number of points per batch           ...      125
Average number of grid points per atom       ...     3361
UseSFitting                                  ... on
Initializing property integral containers    ... done (  0.0 sec)

SHARK setup successfully completed in   4.2 seconds

Maximum memory used throughout the entire STARTUP-calculation: 80.1 MB
[1741400890.580105] [ohm:1426125:0]        ib_iface.c:1059 UCX  ERROR ibv_create_cq(cqe=256) failed: Connection timed out
[1741400890.590898] [ohm:1426134:0]        ib_iface.c:1059 UCX  ERROR ibv_create_cq(cqe=256) failed: Connection timed out
[1741400890.591411] [ohm:1426122:0]        ib_iface.c:1059 UCX  ERROR ibv_create_cq(cqe=256) failed: Connection timed out
[1741400890.592480] [ohm:1426140:0]        ib_iface.c:1059 UCX  ERROR ibv_create_cq(cqe=256) failed: Connection timed out
[1741400890.596086] [ohm:1426124:0]        ib_iface.c:1059 UCX  ERROR ibv_create_cq(cqe=256) failed: Connection timed out
[1741400890.614452] [ohm:1426144:0]        ib_iface.c:1059 UCX  ERROR ibv_create_cq(cqe=256) failed: Connection timed out
[1741400890.617033] [ohm:1426133:0]        ib_iface.c:1059 UCX  ERROR ibv_create_cq(cqe=256) failed: Connection timed out
[1741400890.617231] [ohm:1426123:0]        ib_iface.c:1059 UCX  ERROR ibv_create_cq(cqe=256) failed: Connection timed out
[1741400890.619266] [ohm:1426129:0]        ib_iface.c:1059 UCX  ERROR ibv_create_cq(cqe=256) failed: Connection timed out
[1741400890.621561] [ohm:1426143:0]        ib_iface.c:1059 UCX  ERROR ibv_create_cq(cqe=256) failed: Connection timed out
[1741400890.621751] [ohm:1426121:0]        ib_iface.c:1059 UCX  ERROR ibv_create_cq(cqe=256) failed: Connection timed out
[1741400890.627662] [ohm:1426150:0]        ib_iface.c:1059 UCX  ERROR ibv_create_cq(cqe=256) failed: Connection timed out
[1741400890.629816] [ohm:1426243:0]        ib_iface.c:1059 UCX  ERROR ibv_create_cq(cqe=256) failed: Connection timed out
[1741400890.631612] [ohm:1426136:0]        ib_iface.c:1059 UCX  ERROR ibv_create_cq(cqe=256) failed: Connection timed out
[1741400890.634249] [ohm:1426263:0]        ib_iface.c:1059 UCX  ERROR ibv_create_cq(cqe=256) failed: Connection timed out
[1741400890.669238] [ohm:1426239:0]        ib_iface.c:1059 UCX  ERROR ibv_create_cq(cqe=256) failed: Connection timed out
[1741400890.669575] [ohm:1426258:0]        ib_iface.c:1059 UCX  ERROR ibv_create_cq(cqe=256) failed: Connection timed out
[1741400890.674466] [ohm:1426251:0]        ib_iface.c:1059 UCX  ERROR ibv_create_cq(cqe=256) failed: Connection timed out
[1741400890.677749] [ohm:1426252:0]        ib_iface.c:1059 UCX  ERROR ibv_create_cq(cqe=256) failed: Connection timed out
[1741400890.714005] [ohm:1426237:0]        ib_iface.c:1059 UCX  ERROR ibv_create_cq(cqe=256) failed: Connection timed out
[1741400890.719717] [ohm:1426202:0]        ib_iface.c:1059 UCX  ERROR ibv_create_cq(cqe=256) failed: Connection timed out
[1741400890.752321] [ohm:1426146:0]        ib_iface.c:1059 UCX  ERROR ibv_create_cq(cqe=256) failed: Connection timed out
[1741400890.765235] [ohm:1426180:0]        ib_iface.c:1059 UCX  ERROR ibv_create_cq(cqe=256) failed: Connection timed out
[1741400890.770208] [ohm:1426206:0]        ib_iface.c:1059 UCX  ERROR ibv_create_cq(cqe=256) failed: Connection timed out
[1741400890.783453] [ohm:1426194:0]        ib_iface.c:1059 UCX  ERROR ibv_create_cq(cqe=256) failed: Connection timed out
[1741400890.791213] [ohm:1426152:0]        ib_iface.c:1059 UCX  ERROR ibv_create_cq(cqe=256) failed: Connection timed out
[1741400890.798630] [ohm:1426231:0]        ib_iface.c:1059 UCX  ERROR ibv_create_cq(cqe=256) failed: Connection timed out
[1741400890.810220] [ohm:1426132:0]        ib_iface.c:1059 UCX  ERROR ibv_create_cq(cqe=256) failed: Connection timed out
[1741400890.810399] [ohm:1426172:0]        ib_iface.c:1059 UCX  ERROR ibv_create_cq(cqe=256) failed: Connection timed out
[1741400890.810431] [ohm:1426148:0]        ib_iface.c:1059 UCX  ERROR ibv_create_cq(cqe=256) failed: Connection timed out
[1741400890.814521] [ohm:1426244:0]        ib_iface.c:1059 UCX  ERROR ibv_create_cq(cqe=256) failed: Connection timed out
[1741400890.821931] [ohm:1426167:0]        ib_iface.c:1059 UCX  ERROR ibv_create_cq(cqe=256) failed: Connection timed out
[1741400890.829413] [ohm:1426215:0]        ib_iface.c:1059 UCX  ERROR ibv_create_cq(cqe=256) failed: Connection timed out
[1741400890.832296] [ohm:1426187:0]        ib_iface.c:1059 UCX  ERROR ibv_create_cq(cqe=256) failed: Connection timed out
[1741400890.836459] [ohm:1426190:0]        ib_iface.c:1059 UCX  ERROR ibv_create_cq(cqe=256) failed: Connection timed out
[1741400890.838496] [ohm:1426142:0]        ib_iface.c:1059 UCX  ERROR ibv_create_cq(cqe=256) failed: Connection timed out
[1741400890.838707] [ohm:1426138:0]        ib_iface.c:1059 UCX  ERROR ibv_create_cq(cqe=256) failed: Connection timed out
[1741400890.839889] [ohm:1426217:0]        ib_iface.c:1059 UCX  ERROR ibv_create_cq(cqe=256) failed: Connection timed out
[1741400890.840868] [ohm:1426209:0]        ib_iface.c:1059 UCX  ERROR ibv_create_cq(cqe=256) failed: Connection timed out
[1741400890.844244] [ohm:1426149:0]        ib_iface.c:1059 UCX  ERROR ibv_create_cq(cqe=256) failed: Connection timed out
[1741400890.845875] [ohm:1426141:0]        ib_iface.c:1059 UCX  ERROR ibv_create_cq(cqe=256) failed: Connection timed out
[1741400890.856725] [ohm:1426176:0]        ib_iface.c:1059 UCX  ERROR ibv_create_cq(cqe=256) failed: Connection timed out
[1741400890.863539] [ohm:1426212:0]        ib_iface.c:1059 UCX  ERROR ibv_create_cq(cqe=256) failed: Connection timed out
[1741400890.866260] [ohm:1426131:0]        ib_iface.c:1059 UCX  ERROR ibv_create_cq(cqe=256) failed: Connection timed out
[1741400890.869797] [ohm:1426130:0]        ib_iface.c:1059 UCX  ERROR ibv_create_cq(cqe=256) failed: Connection timed out
[1741400890.869910] [ohm:1426135:0]        ib_iface.c:1059 UCX  ERROR ibv_create_cq(cqe=256) failed: Connection timed out
[1741400890.874111] [ohm:1426234:0]        ib_iface.c:1059 UCX  ERROR ibv_create_cq(cqe=256) failed: Connection timed out
[1741400890.875754] [ohm:1426218:0]        ib_iface.c:1059 UCX  ERROR ibv_create_cq(cqe=256) failed: Connection timed out
[1741400890.880226] [ohm:1426127:0]        ib_iface.c:1059 UCX  ERROR ibv_create_cq(cqe=256) failed: Connection timed out
[1741400890.880802] [ohm:1426137:0]        ib_iface.c:1059 UCX  ERROR ibv_create_cq(cqe=256) failed: Connection timed out
[1741400890.883400] [ohm:1426261:0]        ib_iface.c:1059 UCX  ERROR ibv_create_cq(cqe=256) failed: Connection timed out
[1741400890.890409] [ohm:1426151:0]        ib_iface.c:1059 UCX  ERROR ibv_create_cq(cqe=256) failed: Connection timed out
[1741400890.892575] [ohm:1426126:0]        ib_iface.c:1059 UCX  ERROR ibv_create_cq(cqe=256) failed: Connection timed out
[1741400890.892831] [ohm:1426156:0]        ib_iface.c:1059 UCX  ERROR ibv_create_cq(cqe=256) failed: Connection timed out
[1741400890.892888] [ohm:1426198:0]        ib_iface.c:1059 UCX  ERROR ibv_create_cq(cqe=256) failed: Connection timed out
[1741400890.892897] [ohm:1426223:0]        ib_iface.c:1059 UCX  ERROR ibv_create_cq(cqe=256) failed: Connection timed out
[1741400890.894127] [ohm:1426147:0]        ib_iface.c:1059 UCX  ERROR ibv_create_cq(cqe=256) failed: Connection timed out
[1741400890.894254] [ohm:1426139:0]        ib_iface.c:1059 UCX  ERROR ibv_create_cq(cqe=256) failed: Connection timed out
[1741400890.896125] [ohm:1426165:0]        ib_iface.c:1059 UCX  ERROR ibv_create_cq(cqe=256) failed: Connection timed out
[1741400890.897119] [ohm:1426128:0]        ib_iface.c:1059 UCX  ERROR ibv_create_cq(cqe=256) failed: Connection timed out
[1741400890.898604] [ohm:1426145:0]        ib_iface.c:1059 UCX  ERROR ibv_create_cq(cqe=256) failed: Connection timed out
[1741400890.900001] [ohm:1426184:0]        ib_iface.c:1059 UCX  ERROR ibv_create_cq(cqe=256) failed: Connection timed out
[1741400890.900580] [ohm:1426226:0]        ib_iface.c:1059 UCX  ERROR ibv_create_cq(cqe=256) failed: Connection timed out
[1741400890.901498] [ohm:1426160:0]        ib_iface.c:1059 UCX  ERROR ibv_create_cq(cqe=256) failed: Connection timed out


           ************************************************************
           *        Program running with 64 parallel MPI-processes    *
           *              working on a common directory               *
           ************************************************************
-------------------------------------------------------------------------------
                                 ORCA GUESS
                   Start orbitals & Density for SCF / CASSCF
-------------------------------------------------------------------------------

------------
SCF SETTINGS
------------
Hamiltonian:
 Density Functional     Method          .... DFT(GTOs)
  Functional kind                       .... Exchange-Correlation
  Functional name                       .... wB97M-V exchange-correlation functional
  Functional family                     .... Hybrid MGGA
  Functional refs                              
    [ 0] N. Mardirossian and M. Head-Gordon.,  J. Chem. Phys. 144, 214110 (2016), doi: 10.1063/1.4952647
  Fraction of HF Exchange (short range) .... 0.1500
  Fraction of HF Exchange (long range)  .... 1.0000
  Range separation parameter mu         .... 0.3000
  Functional external parameters        .... 17
    Parameter  0 _cx00      =  8.500000e-01 : u^00 coefficient for exchange
    Parameter  1 _cx01      =  1.007000e+00 : u^01 coefficient for exchange
    Parameter  2 _cx10      =  2.590000e-01 : u^10 coefficient for exchange
    Parameter  3 _css00     =  4.430000e-01 : u^00 coefficient for same-spin correlation
    Parameter  4 _css04     = -1.437000e+00 : u^04 coefficient for same-spin correlation
    Parameter  5 _css10     = -4.535000e+00 : u^10 coefficient for same-spin correlation
    Parameter  6 _css20     = -3.390000e+00 : u^20 coefficient for same-spin correlation
    Parameter  7 _css43     =  4.278000e+00 : u^43 coefficient for same-spin correlation
    Parameter  8 _cos00     =  1.000000e+00 : u^00 coefficient for opposite-spin correlation
    Parameter  9 _cos10     =  1.358000e+00 : u^10 coefficient for opposite-spin correlation
    Parameter 10 _cos20     =  2.924000e+00 : u^20 coefficient for opposite-spin correlation
    Parameter 11 _cos21     = -8.812000e+00 : u^21 coefficient for opposite-spin correlation
    Parameter 12 _cos60     = -1.390000e+00 : u^60 coefficient for opposite-spin correlation
    Parameter 13 _cos61     =  9.142000e+00 : u^61 coefficient for opposite-spin correlation
    Parameter 14 _alpha     =  1.000000e+00 : fraction of HF exchange
    Parameter 15 _beta      = -8.500000e-01 : fraction of short-range exchange
    Parameter 16 _omega     =  3.000000e-01 : range-separation constant
 Long-range corrected/Screened/Range-Separated Hybrid DFT is turned on
   Amount of maximum screened exact exchange              ....  0.850000
   Range separation parameter mu (erf(mu*r12)/r12)        ....  0.300000
 RI-approximation to the Coulomb term is turned on
   Number of AuxJ basis functions       .... 1014
   RIJ-COSX (HFX calculated with COS-X)).... on


General Settings:
 Integral files         IntName         .... orca
 Hartree-Fock type      HFTyp           .... UHF
 Total Charge           Charge          ....    0
 Multiplicity           Mult            ....    3
 Number of Electrons    NEL             ....  132
 Basis Dimension        Dim             ....  882
 Nuclear Repulsion      ENuc            ....   1439.0779131342 Eh

Convergence Acceleration:
 AO-DIIS                CNVDIIS         .... on
   Start iteration      DIISMaxIt       ....    12
   Startup error        DIISStart       ....  0.200000
   # of expansion vecs  DIISMaxEq       ....     5
   Bias factor          DIISBfac        ....   1.050
   Max. coefficient     DIISMaxC        ....  10.000
 MO-DIIS                CNVKDIIS        .... off
 Trust-Rad. Augm. Hess. CNVTRAH         .... auto
   Auto Start mean grad. ratio tolernc. ....  1.125000
   Auto Start start iteration           ....    50
   Auto Start num. interpolation iter.  ....    10
   Max. Number of Micro iterations      ....    24
   Max. Number of Macro iterations      .... Maxiter - #DIIS iter
   Number of Davidson start vectors     ....     2
   Converg. threshold    (grad. norm)   ....   1.000e-05
   Grad. Scal. Fac. for Micro threshold ....   0.100
   Minimum threshold for Micro iter.    ....   1.000e-02
   NR start threshold (gradient norm)   ....   1.000e-04
   Initial trust radius                 ....   0.400
   Minimum AH scaling param. (alpha)    ....   1.000
   Maximum AH scaling param. (alpha)    .... 1000.000
   Quad. conv. algorithm                .... NR
   White noise on init. David. guess    .... on
   Maximum white noise                  ....   0.010
   Pseudo random numbers                .... off
   Inactive MOs                         .... canonical
   Orbital update algorithm             .... Taylor
   Preconditioner                       .... Diag
   Full preconditioner red. dimension   ....   250
 SOSCF                  CNVSOSCF        .... on
   Start iteration      SOSCFMaxIt      ....   150
   Startup grad/error   SOSCFStart      ....  0.003300
   Hessian update       SOSCFHessUp     .... L-BFGS
 Level Shifting         CNVShift        .... on
   Level shift para.    LevelShift      ....    0.2500
   Turn off err/grad.   ShiftErr        ....    0.0010
 Zerner damping         CNVZerner       .... off
 Static damping         CNVDamp         .... on
   Fraction old density DampFac         ....    0.7000
   Max. Damping (<1)    DampMax         ....    0.9800
   Min. Damping (>=0)   DampMin         ....    0.0000
   Turn off err/grad.   DampErr         ....    0.1000

SCF Procedure:
 Maximum # iterations   MaxIter         ....   125
 SCF integral mode      SCFMode         .... Direct
   Integral package                     .... SHARK and LIBINT hybrid scheme
 Reset frequency        DirectResetFreq ....    20
 Integral Threshold     Thresh          ....  1.000e-12 Eh
 Primitive CutOff       TCut            ....  1.000e-13 Eh

Convergence Tolerance:
 Convergence Check Mode ConvCheckMode   .... Total+1el-Energy
 Convergence forced     ConvForced      .... 1
 Energy Change          TolE            ....  1.000e-08 Eh
 1-El. energy change                    ....  1.000e-05 Eh
 Orbital Gradient       TolG            ....  1.000e-05
 Orbital Rotation angle TolX            ....  1.000e-05
 DIIS Error             TolErr          ....  5.000e-07

------------------------------
INITIAL GUESS: MODEL POTENTIAL
------------------------------
Loading Hartree-Fock densities                     ... done
Calculating cut-offs                               ... done
Initializing the effective Hamiltonian             ... done
Setting up the integral package (SHARK)            ... done
Starting the Coulomb interaction                   ... done (   0.1 sec)
Making the grid                                    ... done (   0.3 sec)
Mapping shells                                     ... done
Starting the XC term evaluation                    ... done (   0.1 sec)
  promolecular density results
     # of electrons  =    131.999702954
     EX              =   -113.505746992
     EC              =     -4.488952589
     EX+EC           =   -117.994699582
Transforming the Hamiltonian                       ... done (   0.1 sec)
Diagonalizing the Hamiltonian                      ... done (   0.1 sec)
Back transforming the eigenvectors                 ... done (   0.1 sec)
Now organizing SCF variables                       ... done
                      ------------------
                      INITIAL GUESS DONE (   1.1 sec)
                      ------------------
             **** ENERGY FILE WAS UPDATED (orca.en.tmp) ****
Finished Guess after   3.6 sec
Maximum memory used throughout the entire GUESS-calculation: 72.7 MB
[1741400894.632104] [ohm:1426479:0]        ib_iface.c:1059 UCX  ERROR ibv_create_cq(cqe=256) failed: Connection timed out
[1741400894.642919] [ohm:1426476:0]        ib_iface.c:1059 UCX  ERROR ibv_create_cq(cqe=256) failed: Connection timed out
[1741400894.657186] [ohm:1426472:0]        ib_iface.c:1059 UCX  ERROR ibv_create_cq(cqe=256) failed: Connection timed out
[1741400894.657933] [ohm:1426478:0]        ib_iface.c:1059 UCX  ERROR ibv_create_cq(cqe=256) failed: Connection timed out
[1741400894.672101] [ohm:1426473:0]        ib_iface.c:1059 UCX  ERROR ibv_create_cq(cqe=256) failed: Connection timed out
[1741400894.673507] [ohm:1426481:0]        ib_iface.c:1059 UCX  ERROR ibv_create_cq(cqe=256) failed: Connection timed out
[1741400894.676902] [ohm:1426483:0]        ib_iface.c:1059 UCX  ERROR ibv_create_cq(cqe=256) failed: Connection timed out
[1741400894.679956] [ohm:1426484:0]        ib_iface.c:1059 UCX  ERROR ibv_create_cq(cqe=256) failed: Connection timed out
[1741400894.713021] [ohm:1426477:0]        ib_iface.c:1059 UCX  ERROR ibv_create_cq(cqe=256) failed: Connection timed out
[1741400894.713464] [ohm:1426490:0]        ib_iface.c:1059 UCX  ERROR ibv_create_cq(cqe=256) failed: Connection timed out
[1741400894.719367] [ohm:1426488:0]        ib_iface.c:1059 UCX  ERROR ibv_create_cq(cqe=256) failed: Connection timed out
[1741400894.740685] [ohm:1426493:0]        ib_iface.c:1059 UCX  ERROR ibv_create_cq(cqe=256) failed: Connection timed out
[1741400894.741319] [ohm:1426497:0]        ib_iface.c:1059 UCX  ERROR ibv_create_cq(cqe=256) failed: Connection timed out
[1741400894.751109] [ohm:1426487:0]        ib_iface.c:1059 UCX  ERROR ibv_create_cq(cqe=256) failed: Connection timed out
[1741400894.753044] [ohm:1426537:0]        ib_iface.c:1059 UCX  ERROR ibv_create_cq(cqe=256) failed: Connection timed out
[1741400894.754948] [ohm:1426492:0]        ib_iface.c:1059 UCX  ERROR ibv_create_cq(cqe=256) failed: Connection timed out
[1741400894.763109] [ohm:1426600:0]        ib_iface.c:1059 UCX  ERROR ibv_create_cq(cqe=256) failed: Connection timed out
[1741400894.763396] [ohm:1426502:0]        ib_iface.c:1059 UCX  ERROR ibv_create_cq(cqe=256) failed: Connection timed out
[1741400894.770648] [ohm:1426547:0]        ib_iface.c:1059 UCX  ERROR ibv_create_cq(cqe=256) failed: Connection timed out
[1741400894.772027] [ohm:1426573:0]        ib_iface.c:1059 UCX  ERROR ibv_create_cq(cqe=256) failed: Connection timed out
[1741400894.802736] [ohm:1426525:0]        ib_iface.c:1059 UCX  ERROR ibv_create_cq(cqe=256) failed: Connection timed out
[1741400894.820807] [ohm:1426486:0]        ib_iface.c:1059 UCX  ERROR ibv_create_cq(cqe=256) failed: Connection timed out
[1741400894.824735] [ohm:1426558:0]        ib_iface.c:1059 UCX  ERROR ibv_create_cq(cqe=256) failed: Connection timed out
[1741400894.841178] [ohm:1426579:0]        ib_iface.c:1059 UCX  ERROR ibv_create_cq(cqe=256) failed: Connection timed out
[1741400894.854678] [ohm:1426596:0]        ib_iface.c:1059 UCX  ERROR ibv_create_cq(cqe=256) failed: Connection timed out
[1741400894.858237] [ohm:1426614:0]        ib_iface.c:1059 UCX  ERROR ibv_create_cq(cqe=256) failed: Connection timed out
[1741400894.876598] [ohm:1426534:0]        ib_iface.c:1059 UCX  ERROR ibv_create_cq(cqe=256) failed: Connection timed out
[1741400894.877610] [ohm:1426566:0]        ib_iface.c:1059 UCX  ERROR ibv_create_cq(cqe=256) failed: Connection timed out
[1741400894.878054] [ohm:1426508:0]        ib_iface.c:1059 UCX  ERROR ibv_create_cq(cqe=256) failed: Connection timed out
[1741400894.880193] [ohm:1426601:0]        ib_iface.c:1059 UCX  ERROR ibv_create_cq(cqe=256) failed: Connection timed out
[1741400894.890004] [ohm:1426520:0]        ib_iface.c:1059 UCX  ERROR ibv_create_cq(cqe=256) failed: Connection timed out
[1741400894.891191] [ohm:1426606:0]        ib_iface.c:1059 UCX  ERROR ibv_create_cq(cqe=256) failed: Connection timed out
[1741400894.894851] [ohm:1426592:0]        ib_iface.c:1059 UCX  ERROR ibv_create_cq(cqe=256) failed: Connection timed out
[1741400894.900886] [ohm:1426482:0]        ib_iface.c:1059 UCX  ERROR ibv_create_cq(cqe=256) failed: Connection timed out
[1741400894.909482] [ohm:1426489:0]        ib_iface.c:1059 UCX  ERROR ibv_create_cq(cqe=256) failed: Connection timed out
[1741400894.911378] [ohm:1426491:0]        ib_iface.c:1059 UCX  ERROR ibv_create_cq(cqe=256) failed: Connection timed out
[1741400894.913020] [ohm:1426571:0]        ib_iface.c:1059 UCX  ERROR ibv_create_cq(cqe=256) failed: Connection timed out
[1741400894.915200] [ohm:1426564:0]        ib_iface.c:1059 UCX  ERROR ibv_create_cq(cqe=256) failed: Connection timed out
[1741400894.920693] [ohm:1426527:0]        ib_iface.c:1059 UCX  ERROR ibv_create_cq(cqe=256) failed: Connection timed out
[1741400894.933440] [ohm:1426556:0]        ib_iface.c:1059 UCX  ERROR ibv_create_cq(cqe=256) failed: Connection timed out
[1741400894.934741] [ohm:1426531:0]        ib_iface.c:1059 UCX  ERROR ibv_create_cq(cqe=256) failed: Connection timed out
[1741400894.945197] [ohm:1426580:0]        ib_iface.c:1059 UCX  ERROR ibv_create_cq(cqe=256) failed: Connection timed out
[1741400894.945193] [ohm:1426612:0]        ib_iface.c:1059 UCX  ERROR ibv_create_cq(cqe=256) failed: Connection timed out
[1741400894.959653] [ohm:1426560:0]        ib_iface.c:1059 UCX  ERROR ibv_create_cq(cqe=256) failed: Connection timed out
[1741400894.964071] [ohm:1426494:0]        ib_iface.c:1059 UCX  ERROR ibv_create_cq(cqe=256) failed: Connection timed out
[1741400894.964428] [ohm:1426475:0]        ib_iface.c:1059 UCX  ERROR ibv_create_cq(cqe=256) failed: Connection timed out
[1741400894.965104] [ohm:1426496:0]        ib_iface.c:1059 UCX  ERROR ibv_create_cq(cqe=256) failed: Connection timed out
[1741400894.965243] [ohm:1426480:0]        ib_iface.c:1059 UCX  ERROR ibv_create_cq(cqe=256) failed: Connection timed out
[1741400894.967044] [ohm:1426517:0]        ib_iface.c:1059 UCX  ERROR ibv_create_cq(cqe=256) failed: Connection timed out
[1741400894.972590] [ohm:1426590:0]        ib_iface.c:1059 UCX  ERROR ibv_create_cq(cqe=256) failed: Connection timed out
[1741400894.974187] [ohm:1426495:0]        ib_iface.c:1059 UCX  ERROR ibv_create_cq(cqe=256) failed: Connection timed out
[1741400894.975766] [ohm:1426498:0]        ib_iface.c:1059 UCX  ERROR ibv_create_cq(cqe=256) failed: Connection timed out
[1741400894.977370] [ohm:1426584:0]        ib_iface.c:1059 UCX  ERROR ibv_create_cq(cqe=256) failed: Connection timed out
[1741400894.979478] [ohm:1426499:0]        ib_iface.c:1059 UCX  ERROR ibv_create_cq(cqe=256) failed: Connection timed out
[1741400894.979563] [ohm:1426585:0]        ib_iface.c:1059 UCX  ERROR ibv_create_cq(cqe=256) failed: Connection timed out
[1741400894.979713] [ohm:1426485:0]        ib_iface.c:1059 UCX  ERROR ibv_create_cq(cqe=256) failed: Connection timed out
[1741400894.980277] [ohm:1426603:0]        ib_iface.c:1059 UCX  ERROR ibv_create_cq(cqe=256) failed: Connection timed out
[1741400894.981395] [ohm:1426501:0]        ib_iface.c:1059 UCX  ERROR ibv_create_cq(cqe=256) failed: Connection timed out
[1741400894.982349] [ohm:1426474:0]        ib_iface.c:1059 UCX  ERROR ibv_create_cq(cqe=256) failed: Connection timed out
[1741400894.985646] [ohm:1426510:0]        ib_iface.c:1059 UCX  ERROR ibv_create_cq(cqe=256) failed: Connection timed out
[1741400894.985683] [ohm:1426500:0]        ib_iface.c:1059 UCX  ERROR ibv_create_cq(cqe=256) failed: Connection timed out
[1741400894.986138] [ohm:1426553:0]        ib_iface.c:1059 UCX  ERROR ibv_create_cq(cqe=256) failed: Connection timed out
[1741400894.986928] [ohm:1426607:0]        ib_iface.c:1059 UCX  ERROR ibv_create_cq(cqe=256) failed: Connection timed out
[1741400894.989038] [ohm:1426544:0]        ib_iface.c:1059 UCX  ERROR ibv_create_cq(cqe=256) failed: Connection timed out


           ************************************************************
           *        Program running with 64 parallel MPI-processes    *
           *              working on a common directory               *
           ************************************************************

-------------------------------------------------------------------------------------------
                                      ORCA LEAN-SCF
                              memory conserving SCF solver
-------------------------------------------------------------------------------------------

----------------------------------------D-I-I-S--------------------------------------------
Iteration    Energy (Eh)           Delta-E    RMSDP     MaxDP     DIISErr   Damp  Time(sec)
-------------------------------------------------------------------------------------------
               ***  Starting incremental Fock matrix formation  ***
    1    -908.1075999007191513     0.00e+00  1.66e-03  3.13e-01  1.47e-01  0.700   7.9
    2    -908.3782996801394347    -2.71e-01  1.32e-03  2.30e-01  7.01e-02  0.700   6.7
                               ***Turning on AO-DIIS***
    3    -908.4965871606270866    -1.18e-01  9.50e-04  1.48e-01  3.05e-02  0.700   5.9
    4    -908.5695413532382645    -7.30e-02  2.22e-03  3.05e-01  1.92e-02  0.000   5.9
    5    -908.7335397940730672    -1.64e-01  2.20e-04  4.35e-02  5.76e-03  0.000   6.1
                              *** Initializing SOSCF ***
---------------------------------------S-O-S-C-F--------------------------------------
Iteration    Energy (Eh)           Delta-E    RMSDP     MaxDP     MaxGrad    Time(sec)
--------------------------------------------------------------------------------------
    6    -908.7348669065447666    -1.33e-03  1.11e-04  2.52e-02  2.65e-03     6.8
               *** Restarting incremental Fock matrix formation ***
    7    -908.7354821396968418    -6.15e-04  3.47e-04  5.10e-02  4.84e-03     7.5
    8    -908.7358767054927284    -3.95e-04  2.69e-04  4.19e-02  2.49e-03     6.7
    9    -908.7360295770670291    -1.53e-04  2.03e-04  3.39e-02  1.14e-03     6.8
   10    -908.7361013395022837    -7.18e-05  2.68e-05  6.94e-03  5.60e-04     6.6
   11    -908.7361145229235717    -1.32e-05  1.27e-05  1.72e-03  1.47e-04     6.4
   12    -908.7361174664513328    -2.94e-06  7.01e-06  9.06e-04  1.64e-04     6.4
   13    -908.7361191036804939    -1.64e-06  6.53e-06  9.86e-04  4.80e-05     6.2
   14    -908.7361192853607008    -1.82e-07  1.61e-06  2.42e-04  2.61e-05     6.2
   15    -908.7361193601016112    -7.47e-08  1.52e-06  1.95e-04  9.59e-06     5.9
   16    -908.7361193624331008    -2.33e-09  1.10e-06  2.05e-04  5.46e-06     5.8
                 **** Energy Check signals convergence ****

               *****************************************************
               *                     SUCCESS                       *
               *           SCF CONVERGED AFTER  16 CYCLES          *
               *****************************************************

Recomputing exchange energy using gridx3       ... done (    7.809 sec)
Old exchange energy                            :    -35.021341359 Eh
New exchange energy                            :    -35.021351930 Eh
Exchange energy change after final integration :     -0.000010572 Eh
Total energy after final integration           :   -908.736129934 Eh
             **** ENERGY FILE WAS UPDATED (orca.en.tmp) ****

----------------
TOTAL SCF ENERGY
----------------

Total Energy       :       -908.73612993395750 Eh          -24727.96724 eV

Components:
Nuclear Repulsion  :       1439.07791313418397 Eh           39159.30084 eV
Electronic Energy  :      -2347.81403249661707 Eh          -63887.26779 eV
One Electron Energy:      -4095.19679285071925 Eh         -111435.97003 eV
Two Electron Energy:       1747.38276035410217 Eh           47548.70224 eV

Virial components:
Potential Energy   :      -1814.21559861771448 Eh          -49367.31622 eV
Kinetic Energy     :        905.47946868375698 Eh           24639.34898 eV
Virial Ratio       :          2.00359661523296

DFT components:
N(Alpha)           :       67.000020212321 electrons
N(Beta)            :       65.000050606357 electrons
N(Total)           :      132.000070818678 electrons
E(XC)              :      -86.203386776679 Eh       

---------------
SCF CONVERGENCE
---------------

  Last Energy change         ...    2.3315e-09  Tolerance :   1.0000e-08
  Last MAX-Density change    ...    2.0483e-04  Tolerance :   1.0000e-07
  Last RMS-Density change    ...    1.0951e-06  Tolerance :   5.0000e-09
  Last DIIS Error            ...    2.6501e-03  Tolerance :   5.0000e-07
  Last Orbital Gradient      ...    5.4573e-06  Tolerance :   1.0000e-05
  Last Orbital Rotation      ...    2.6844e-05  Tolerance :   1.0000e-05


----------------------
UHF SPIN CONTAMINATION
----------------------

Warning: in a DFT calculation there is little theoretical justification to 
         calculate <S**2> as in Hartree-Fock theory. We will do it anyways
         but you should keep in mind that the values have only limited relevance

Expectation value of <S**2>     :     2.016500
Ideal value S*(S+1) for S=1.0   :     2.000000
Deviation                       :     0.016500

----------------
ORBITAL ENERGIES
----------------
                 SPIN UP ORBITALS
  NO   OCC          E(Eh)            E(eV) 
   0   1.0000     -19.340337      -526.2773 
   1   1.0000     -19.335024      -526.1327 
   2   1.0000     -19.333968      -526.1040 
   3   1.0000     -19.320695      -525.7428 
   4   1.0000     -14.570470      -396.4826 
   5   1.0000     -14.569567      -396.4581 
   6   1.0000     -14.566100      -396.3637 
   7   1.0000     -14.562425      -396.2637 
   8   1.0000     -10.517930      -286.2074 
   9   1.0000     -10.505154      -285.8598 
  10   1.0000     -10.488290      -285.4009 
  11   1.0000     -10.480696      -285.1942 
  12   1.0000     -10.458495      -284.5901 
  13   1.0000     -10.440613      -284.1035 
  14   1.0000     -10.423556      -283.6394 
  15   1.0000     -10.414780      -283.4006 
  16   1.0000     -10.372343      -282.2458 
  17   1.0000     -10.363704      -282.0107 
  18   1.0000      -1.219670       -33.1889 
  19   1.0000      -1.210943       -32.9514 
  20   1.0000      -1.204327       -32.7714 
  21   1.0000      -1.178088       -32.0574 
  22   1.0000      -1.114341       -30.3228 
  23   1.0000      -1.092091       -29.7173 
  24   1.0000      -1.062745       -28.9188 
  25   1.0000      -1.047431       -28.5020 
  26   1.0000      -0.989005       -26.9122 
  27   1.0000      -0.962671       -26.1956 
  28   1.0000      -0.893719       -24.3193 
  29   1.0000      -0.845837       -23.0164 
  30   1.0000      -0.829758       -22.5789 
  31   1.0000      -0.800249       -21.7759 
  32   1.0000      -0.779095       -21.2003 
  33   1.0000      -0.775567       -21.1042 
  34   1.0000      -0.698677       -19.0120 
  35   1.0000      -0.694153       -18.8889 
  36   1.0000      -0.685715       -18.6592 
  37   1.0000      -0.669287       -18.2122 
  38   1.0000      -0.653371       -17.7791 
  39   1.0000      -0.630439       -17.1551 
  40   1.0000      -0.610634       -16.6162 
  41   1.0000      -0.607453       -16.5296 
  42   1.0000      -0.601567       -16.3695 
  43   1.0000      -0.587340       -15.9823 
  44   1.0000      -0.576470       -15.6865 
  45   1.0000      -0.572906       -15.5896 
  46   1.0000      -0.569230       -15.4895 
  47   1.0000      -0.564481       -15.3603 
  48   1.0000      -0.561032       -15.2665 
  49   1.0000      -0.556772       -15.1505 
  50   1.0000      -0.551918       -15.0185 
  51   1.0000      -0.542576       -14.7643 
  52   1.0000      -0.539586       -14.6829 
  53   1.0000      -0.527985       -14.3672 
  54   1.0000      -0.515536       -14.0285 
  55   1.0000      -0.504552       -13.7295 
  56   1.0000      -0.483639       -13.1605 
  57   1.0000      -0.430501       -11.7145 
  58   1.0000      -0.419140       -11.4054 
  59   1.0000      -0.414912       -11.2903 
  60   1.0000      -0.409062       -11.1311 
  61   1.0000      -0.401582       -10.9276 
  62   1.0000      -0.396185       -10.7807 
  63   1.0000      -0.393185       -10.6991 
  64   1.0000      -0.386709       -10.5229 
  65   1.0000      -0.346738        -9.4352 
  66   1.0000      -0.326755        -8.8914 
  67   0.0000       0.007127         0.1939 
  68   0.0000       0.027533         0.7492 
  69   0.0000       0.033377         0.9082 
  70   0.0000       0.037325         1.0157 
  71   0.0000       0.051461         1.4003 
  72   0.0000       0.055408         1.5077 
  73   0.0000       0.059073         1.6074 
  74   0.0000       0.062895         1.7115 
  75   0.0000       0.064435         1.7534 
  76   0.0000       0.066458         1.8084 
  77   0.0000       0.071520         1.9462 

                 SPIN DOWN ORBITALS
  NO   OCC          E(Eh)            E(eV) 
   0   1.0000     -19.336291      -526.1672 
   1   1.0000     -19.333830      -526.1003 
   2   1.0000     -19.329062      -525.9705 
   3   1.0000     -19.320663      -525.7420 
   4   1.0000     -14.569998      -396.4698 
   5   1.0000     -14.569179      -396.4475 
   6   1.0000     -14.566019      -396.3615 
   7   1.0000     -14.561606      -396.2414 
   8   1.0000     -10.517962      -286.2083 
   9   1.0000     -10.505199      -285.8610 
  10   1.0000     -10.489297      -285.4283 
  11   1.0000     -10.481849      -285.2256 
  12   1.0000     -10.458587      -284.5926 
  13   1.0000     -10.440132      -284.0904 
  14   1.0000     -10.412200      -283.3304 
  15   1.0000     -10.403931      -283.1054 
  16   1.0000     -10.372938      -282.2620 
  17   1.0000     -10.364168      -282.0233 
  18   1.0000      -1.217821       -33.1386 
  19   1.0000      -1.209846       -32.9216 
  20   1.0000      -1.199884       -32.6505 
  21   1.0000      -1.170100       -31.8400 
  22   1.0000      -1.112040       -30.2601 
  23   1.0000      -1.089843       -29.6561 
  24   1.0000      -1.060680       -28.8626 
  25   1.0000      -1.045767       -28.4568 
  26   1.0000      -0.975197       -26.5365 
  27   1.0000      -0.946435       -25.7538 
  28   1.0000      -0.889237       -24.1974 
  29   1.0000      -0.839226       -22.8365 
  30   1.0000      -0.820482       -22.3265 
  31   1.0000      -0.795557       -21.6482 
  32   1.0000      -0.777374       -21.1534 
  33   1.0000      -0.774204       -21.0672 
  34   1.0000      -0.693304       -18.8658 
  35   1.0000      -0.687933       -18.7196 
  36   1.0000      -0.680349       -18.5132 
  37   1.0000      -0.661460       -17.9992 
  38   1.0000      -0.642555       -17.4848 
  39   1.0000      -0.627760       -17.0822 
  40   1.0000      -0.607855       -16.5406 
  41   1.0000      -0.602867       -16.4049 
  42   1.0000      -0.590629       -16.0718 
  43   1.0000      -0.580126       -15.7860 
  44   1.0000      -0.572503       -15.5786 
  45   1.0000      -0.565140       -15.3782 
  46   1.0000      -0.561313       -15.2741 
  47   1.0000      -0.558100       -15.1867 
  48   1.0000      -0.555900       -15.1268 
  49   1.0000      -0.547876       -14.9085 
  50   1.0000      -0.545882       -14.8542 
  51   1.0000      -0.535133       -14.5617 
  52   1.0000      -0.529245       -14.4015 
  53   1.0000      -0.520107       -14.1528 
  54   1.0000      -0.511239       -13.9115 
  55   1.0000      -0.491638       -13.3781 
  56   1.0000      -0.478067       -13.0089 
  57   1.0000      -0.425414       -11.5761 
  58   1.0000      -0.415933       -11.3181 
  59   1.0000      -0.408101       -11.1050 
  60   1.0000      -0.396640       -10.7931 
  61   1.0000      -0.392242       -10.6734 
  62   1.0000      -0.387728       -10.5506 
  63   1.0000      -0.386753       -10.5241 
  64   1.0000      -0.377939       -10.2842 
  65   0.0000      -0.063639        -1.7317 
  66   0.0000      -0.051877        -1.4116 
  67   0.0000       0.006518         0.1774 
  68   0.0000       0.027230         0.7410 
  69   0.0000       0.033324         0.9068 
  70   0.0000       0.037390         1.0174 
  71   0.0000       0.055016         1.4971 
  72   0.0000       0.056189         1.5290 
  73   0.0000       0.059757         1.6261 
  74   0.0000       0.063349         1.7238 
  75   0.0000       0.065350         1.7783 
*Only the first 10 virtual orbitals were printed.

                    ********************************
                    * MULLIKEN POPULATION ANALYSIS *
                    ********************************

--------------------------------------------
MULLIKEN ATOMIC CHARGES AND SPIN POPULATIONS
--------------------------------------------
   0 O :   -0.634884    0.150031
   1 O :   -0.688101    0.218231
   2 O :   -0.643678    0.001570
   3 O :   -0.635681    0.004775
   4 N :   -0.149931    0.019123
   5 N :   -0.400050    0.037695
   6 N :   -0.039733    0.040596
   7 N :    0.103660    0.019814
   8 C :   -0.033441    0.477372
   9 C :   -0.196316    0.414381
  10 C :    0.569723    0.105630
  11 C :    0.622187    0.128221
  12 C :   -1.435800    0.039815
  13 C :   -1.299633    0.041091
  14 C :    0.341702    0.089987
  15 C :    0.399266    0.100989
  16 C :    0.457369   -0.010249
  17 C :    0.259134   -0.000810
  18 H :    0.497372    0.014918
  19 H :    0.746690    0.018454
  20 H :    0.371957    0.010297
  21 H :    0.274130    0.015075
  22 H :    0.313775    0.021061
  23 H :    0.200812    0.029403
  24 H :    0.360151    0.012962
  25 H :    0.297305    0.001655
  26 H :    0.079324    0.001663
  27 H :    0.152210   -0.001094
  28 H :    0.054091   -0.001037
  29 H :    0.056390   -0.001622
Sum of atomic charges         :   -0.0000000
Sum of atomic spin populations:    2.0000000

-----------------------------------------------------
MULLIKEN REDUCED ORBITAL CHARGES AND SPIN POPULATIONS
-----------------------------------------------------
CHARGE
  0 O s       :     4.076505  s :     4.076505
      pz      :     1.522676  p :     4.526171
      px      :     1.534207
      py      :     1.469288
      dz2     :     0.004346  d :     0.030292
      dxz     :     0.008197
      dyz     :     0.009515
      dx2y2   :     0.002411
      dxy     :     0.005824
      f0      :     0.000296  f :     0.001917
      f+1     :     0.000473
      f-1     :     0.000189
      f+2     :     0.000402
      f-2     :     0.000394
      f+3     :     0.000087
[...]
[1741401201.859016] [ohm:1429009:0]        ib_iface.c:1059 UCX  ERROR ibv_create_cq(cqe=256) failed: Connection timed out
[1741401201.860048] [ohm:1429108:0]        ib_iface.c:1059 UCX  ERROR ibv_create_cq(cqe=256) failed: Connection timed out
[1741401201.862157] [ohm:1429074:0]        ib_iface.c:1059 UCX  ERROR ibv_create_cq(cqe=256) failed: Connection timed out
[1741401201.862308] [ohm:1429080:0]        ib_iface.c:1059 UCX  ERROR ibv_create_cq(cqe=256) failed: Connection timed out
[1741401201.863649] [ohm:1429006:0]        ib_iface.c:1059 UCX  ERROR ibv_create_cq(cqe=256) failed: Connection timed out
[1741401201.864107] [ohm:1429007:0]        ib_iface.c:1059 UCX  ERROR ibv_create_cq(cqe=256) failed: Connection timed out
[1741401201.866021] [ohm:1429070:0]        ib_iface.c:1059 UCX  ERROR ibv_create_cq(cqe=256) failed: Connection timed out
[1741401201.866115] [ohm:1429010:0]        ib_iface.c:1059 UCX  ERROR ibv_create_cq(cqe=256) failed: Connection timed out
[1741401201.866211] [ohm:1429086:0]        ib_iface.c:1059 UCX  ERROR ibv_create_cq(cqe=256) failed: Connection timed out
[1741401201.866985] [ohm:1429033:0]        ib_iface.c:1059 UCX  ERROR ibv_create_cq(cqe=256) failed: Connection timed out


           ************************************************************
           *        Program running with 64 parallel MPI-processes    *
           *              working on a common directory               *
           ************************************************************

------------------------------------------------------------------------------
                              ORCA PROPERTY CALCULATIONS
------------------------------------------------------------------------------

GBWName                                 ... orca.gbw
Number of atoms                         ...     30
Number of basis functions               ...    882
Max core memory                         ...   1024 MB

Electric properties:
Dipole moment                           ... YES
Quadrupole moment                       ...  NO
Static polarizability (Dipole/Dipole)   ...  NO
Static polarizability (Dipole/Quad.)    ...  NO
Static polarizability (Quad./Quad.)     ...  NO
Static polarizability (Velocity)        ...  NO

Atomic electric properties:
Dipole moment                           ...  NO
Quadrupole moment                       ...  NO
Static polarizability                   ...  NO

Choice of electric origin               ... Center of mass
Position of electric origin             ...    -0.012423    -0.084969    -0.043873

General magnetic properties:
Magnetizability                         ...  NO

EPR properties:
g-Tensor (aka g-matrix)                 ...  NO
Zero-Field splitting spin-orbit         ...  NO
Zero-field splitting spin-spin          ...  NO
Hyperfine couplings                     ...  NO (   0 nuclei)
Quadrupole couplings                    ...  NO (   0 nuclei)
Contact density                         ...  NO (   0 nuclei)

NMR properties:
Chemical shifts                         ...  NO (   0 nuclei)
Spin-rotation constants                 ...  NO (   0 nuclei)
Spin-spin couplings                     ...  NO (   0 nuclei,    0 pairs)

Choice of magnetic origin               ... GIAO
Position of magnetic origin             ...     0.000000     0.000000     0.000000

Properties with geometric perturbations:
SCF Hessian                             ...  NO
IR spectrum                             ...  NO
VCD spectrum                            ...  NO
X-ray spectroscopy properties:
SCF XES/XAS/RIXS spectra                ...  NO


-------------
DIPOLE MOMENT
-------------

Method             : SCF
Type of density    : Electron Density
Multiplicity       :   3
Irrep              :   0
Energy             :  -908.7361299339574998 Eh
Relativity type    : 
Basis              : AO
                                X                 Y                 Z
Electronic contribution:    -10.081871631      -4.896645785      -2.014205469
Nuclear contribution   :     12.124477790       5.370561621       3.843291209
                        -----------------------------------------
Total Dipole Moment    :      2.042606159       0.473915836       1.829085740
                        -----------------------------------------
Magnitude (a.u.)       :      2.782515190
Magnitude (Debye)      :      7.072591546



--------------------
Rotational spectrum 
--------------------
 
Rotational constants in cm-1:             0.021159             0.012694             0.012209 
Rotational constants in MHz :           634.323206           380.543833           366.026652 

Dipole components along the rotational axes: 
x,y,z [a.u.] :    -0.874885    -1.649426     2.063095 
x,y,z [Debye]:    -2.223782    -4.192508     5.243970 

 

-------------
DIPOLE MOMENT
-------------

Method             : TDA/CIS
Type of density    : Electron Density
Level              : Relaxed density
State              :   2
Multiplicity       :   3
Irrep              :   0
Energy             :     0.0000000000000000 Eh
Relativity type    : 
Basis              : AO
                                X                 Y                 Z
Electronic contribution:    -10.005848689      -4.871242181      -1.922476588
Nuclear contribution   :     12.124477790       5.370561621       3.843291209
                        -----------------------------------------
Total Dipole Moment    :      2.118629101       0.499319440       1.920814622
                        -----------------------------------------
Magnitude (a.u.)       :      2.903004992
Magnitude (Debye)      :      7.378852281



--------------------
Rotational spectrum 
--------------------
 
Rotational constants in cm-1:             0.021159             0.012694             0.012209 
Rotational constants in MHz :           634.323206           380.543833           366.026652 

Dipole components along the rotational axes: 
x,y,z [a.u.] :    -0.895476    -1.722839     2.158098 
x,y,z [Debye]:    -2.276119    -4.379110     5.485448 

 

Dipole moment calculation done in   0.2 sec 

Maximum memory used throughout the entire PROP-calculation: 81.7 MB
[1741401204.271582] [ohm:1429340:0]        ib_iface.c:1059 UCX  ERROR ibv_create_cq(cqe=256) failed: Connection timed out
[1741401204.272356] [ohm:1429363:0]        ib_iface.c:1059 UCX  ERROR ibv_create_cq(cqe=256) failed: Connection timed out
[1741401204.273206] [ohm:1429337:0]        ib_iface.c:1059 UCX  ERROR ibv_create_cq(cqe=256) failed: Connection timed out
[1741401204.278689] [ohm:1429346:0]        ib_iface.c:1059 UCX  ERROR ibv_create_cq(cqe=256) failed: Connection timed out
[1741401204.278940] [ohm:1429428:0]        ib_iface.c:1059 UCX  ERROR ibv_create_cq(cqe=256) failed: Connection timed out
[1741401204.279243] [ohm:1429333:0]        ib_iface.c:1059 UCX  ERROR ibv_create_cq(cqe=256) failed: Connection timed out
[1741401204.281562] [ohm:1429380:0]        ib_iface.c:1059 UCX  ERROR ibv_create_cq(cqe=256) failed: Connection timed out
[1741401204.283845] [ohm:1429335:0]        ib_iface.c:1059 UCX  ERROR ibv_create_cq(cqe=256) failed: Connection timed out
[1741401204.287735] [ohm:1429372:0]        ib_iface.c:1059 UCX  ERROR ibv_create_cq(cqe=256) failed: Connection timed out
[1741401204.291458] [ohm:1429332:0]        ib_iface.c:1059 UCX  ERROR ibv_create_cq(cqe=256) failed: Connection timed out
[1741401204.308515] [ohm:1429464:0]        ib_iface.c:1059 UCX  ERROR ibv_create_cq(cqe=256) failed: Connection timed out
[1741401204.312435] [ohm:1429480:0]        ib_iface.c:1059 UCX  ERROR ibv_create_cq(cqe=256) failed: Connection timed out
[1741401204.313433] [ohm:1429358:0]        ib_iface.c:1059 UCX  ERROR ibv_create_cq(cqe=256) failed: Connection timed out
[1741401204.324615] [ohm:1429457:0]        ib_iface.c:1059 UCX  ERROR ibv_create_cq(cqe=256) failed: Connection timed out
[1741401204.324880] [ohm:1429476:0]        ib_iface.c:1059 UCX  ERROR ibv_create_cq(cqe=256) failed: Connection timed out
[1741401204.327417] [ohm:1429357:0]        ib_iface.c:1059 UCX  ERROR ibv_create_cq(cqe=256) failed: Connection timed out
[1741401204.334702] [ohm:1429442:0]        ib_iface.c:1059 UCX  ERROR ibv_create_cq(cqe=256) failed: Connection timed out
[1741401204.357629] [ohm:1429348:0]        ib_iface.c:1059 UCX  ERROR ibv_create_cq(cqe=256) failed: Connection timed out
[1741401204.364078] [ohm:1429473:0]        ib_iface.c:1059 UCX  ERROR ibv_create_cq(cqe=256) failed: Connection timed out
[1741401204.373688] [ohm:1429369:0]        ib_iface.c:1059 UCX  ERROR ibv_create_cq(cqe=256) failed: Connection timed out
[1741401204.375986] [ohm:1429351:0]        ib_iface.c:1059 UCX  ERROR ibv_create_cq(cqe=256) failed: Connection timed out
[1741401204.380885] [ohm:1429386:0]        ib_iface.c:1059 UCX  ERROR ibv_create_cq(cqe=256) failed: Connection timed out
[1741401204.444177] [ohm:1429394:0]        ib_iface.c:1059 UCX  ERROR ibv_create_cq(cqe=256) failed: Connection timed out
[1741401204.445777] [ohm:1429334:0]        ib_iface.c:1059 UCX  ERROR ibv_create_cq(cqe=256) failed: Connection timed out
[1741401204.454361] [ohm:1429341:0]        ib_iface.c:1059 UCX  ERROR ibv_create_cq(cqe=256) failed: Connection timed out
[1741401204.457733] [ohm:1429435:0]        ib_iface.c:1059 UCX  ERROR ibv_create_cq(cqe=256) failed: Connection timed out
[1741401204.468932] [ohm:1429345:0]        ib_iface.c:1059 UCX  ERROR ibv_create_cq(cqe=256) failed: Connection timed out
[1741401204.472315] [ohm:1429455:0]        ib_iface.c:1059 UCX  ERROR ibv_create_cq(cqe=256) failed: Connection timed out
[1741401204.474097] [ohm:1429343:0]        ib_iface.c:1059 UCX  ERROR ibv_create_cq(cqe=256) failed: Connection timed out
[1741401204.476184] [ohm:1429383:0]        ib_iface.c:1059 UCX  ERROR ibv_create_cq(cqe=256) failed: Connection timed out
[1741401204.478655] [ohm:1429355:0]        ib_iface.c:1059 UCX  ERROR ibv_create_cq(cqe=256) failed: Connection timed out
[1741401204.485488] [ohm:1429352:0]        ib_iface.c:1059 UCX  ERROR ibv_create_cq(cqe=256) failed: Connection timed out
[1741401204.493356] [ohm:1429354:0]        ib_iface.c:1059 UCX  ERROR ibv_create_cq(cqe=256) failed: Connection timed out
[1741401204.496238] [ohm:1429336:0]        ib_iface.c:1059 UCX  ERROR ibv_create_cq(cqe=256) failed: Connection timed out
[1741401204.497593] [ohm:1429418:0]        ib_iface.c:1059 UCX  ERROR ibv_create_cq(cqe=256) failed: Connection timed out
[1741401204.502797] [ohm:1429465:0]        ib_iface.c:1059 UCX  ERROR ibv_create_cq(cqe=256) failed: Connection timed out
[1741401204.504468] [ohm:1429444:0]        ib_iface.c:1059 UCX  ERROR ibv_create_cq(cqe=256) failed: Connection timed out
[1741401204.508095] [ohm:1429338:0]        ib_iface.c:1059 UCX  ERROR ibv_create_cq(cqe=256) failed: Connection timed out
[1741401204.510158] [ohm:1429431:0]        ib_iface.c:1059 UCX  ERROR ibv_create_cq(cqe=256) failed: Connection timed out
[1741401204.510934] [ohm:1429424:0]        ib_iface.c:1059 UCX  ERROR ibv_create_cq(cqe=256) failed: Connection timed out
[1741401204.514527] [ohm:1429461:0]        ib_iface.c:1059 UCX  ERROR ibv_create_cq(cqe=256) failed: Connection timed out
[1741401204.523952] [ohm:1429450:0]        ib_iface.c:1059 UCX  ERROR ibv_create_cq(cqe=256) failed: Connection timed out
[1741401204.528742] [ohm:1429469:0]        ib_iface.c:1059 UCX  ERROR ibv_create_cq(cqe=256) failed: Connection timed out
[1741401204.530104] [ohm:1429347:0]        ib_iface.c:1059 UCX  ERROR ibv_create_cq(cqe=256) failed: Connection timed out
[1741401204.530103] [ohm:1429342:0]        ib_iface.c:1059 UCX  ERROR ibv_create_cq(cqe=256) failed: Connection timed out
[1741401204.537466] [ohm:1429360:0]        ib_iface.c:1059 UCX  ERROR ibv_create_cq(cqe=256) failed: Connection timed out
[1741401204.538984] [ohm:1429339:0]        ib_iface.c:1059 UCX  ERROR ibv_create_cq(cqe=256) failed: Connection timed out
[1741401204.539891] [ohm:1429438:0]        ib_iface.c:1059 UCX  ERROR ibv_create_cq(cqe=256) failed: Connection timed out
[1741401204.544512] [ohm:1429367:0]        ib_iface.c:1059 UCX  ERROR ibv_create_cq(cqe=256) failed: Connection timed out
[1741401204.548322] [ohm:1429390:0]        ib_iface.c:1059 UCX  ERROR ibv_create_cq(cqe=256) failed: Connection timed out
[1741401204.548431] [ohm:1429422:0]        ib_iface.c:1059 UCX  ERROR ibv_create_cq(cqe=256) failed: Connection timed out
[1741401204.558026] [ohm:1429410:0]        ib_iface.c:1059 UCX  ERROR ibv_create_cq(cqe=256) failed: Connection timed out
[1741401204.558745] [ohm:1429402:0]        ib_iface.c:1059 UCX  ERROR ibv_create_cq(cqe=256) failed: Connection timed out
[1741401204.560730] [ohm:1429426:0]        ib_iface.c:1059 UCX  ERROR ibv_create_cq(cqe=256) failed: Connection timed out
[1741401204.562827] [ohm:1429350:0]        ib_iface.c:1059 UCX  ERROR ibv_create_cq(cqe=256) failed: Connection timed out
[1741401204.566760] [ohm:1429413:0]        ib_iface.c:1059 UCX  ERROR ibv_create_cq(cqe=256) failed: Connection timed out
[1741401204.568560] [ohm:1429397:0]        ib_iface.c:1059 UCX  ERROR ibv_create_cq(cqe=256) failed: Connection timed out
[1741401204.569442] [ohm:1429447:0]        ib_iface.c:1059 UCX  ERROR ibv_create_cq(cqe=256) failed: Connection timed out
[1741401204.571199] [ohm:1429344:0]        ib_iface.c:1059 UCX  ERROR ibv_create_cq(cqe=256) failed: Connection timed out
[1741401204.571799] [ohm:1429349:0]        ib_iface.c:1059 UCX  ERROR ibv_create_cq(cqe=256) failed: Connection timed out
[1741401204.575025] [ohm:1429377:0]        ib_iface.c:1059 UCX  ERROR ibv_create_cq(cqe=256) failed: Connection timed out
[1741401204.576407] [ohm:1429405:0]        ib_iface.c:1059 UCX  ERROR ibv_create_cq(cqe=256) failed: Connection timed out
[1741401204.577036] [ohm:1429356:0]        ib_iface.c:1059 UCX  ERROR ibv_create_cq(cqe=256) failed: Connection timed out
[1741401204.577975] [ohm:1429353:0]        ib_iface.c:1059 UCX  ERROR ibv_create_cq(cqe=256) failed: Connection timed out

--------------------------------
SUGGESTED CITATIONS FOR THIS RUN
--------------------------------

Below you find a list of papers that are relevant to this ORCA run
We neither can nor want to force you to cite these papers, but we appreciate if you do
You receive ORCA, which is the product of decades of hard work by many enthusiastic individuals, for free
The only thing we kindly ask in return is that you cite our papers,
We deeply appreciate it, if you show your appreciation for ORCA by not just citing the generic ORCA reference.

Please note that relegating all ORCA citations to the supporting information does *not* help us.
SI sections are not indexed - citations you put there will not count into any citation statistics
But we need these citations in order to attract the funding resources that allow us to do what we are doing

Therefore, if you are a happy ORCA user, please consider citing a few of the papers listed below in the main body of your paper

In addition to the list printed below, the program has created the file orca.bibtex that contains the list in bibtex format
You can import this file easily into all common literature databanks and citation aid programs


List of essential papers. We consider these as the minimum necessary citations

  1. Neese,F.
     Software update: the ORCA program system, version 5.0
     WIRES Comput. Molec. Sci., 2022 12(1)e1606
     doi.org/10.1002/wcms.1606

List of papers to cite with high priority. The work reported in these papers was absolutely
necessary for this run to complete.
Our perspective: the developers of density functionals and basis sets usually get cited in chemistry papers
Good! But without the algorithms to do something with them, the functionals or basis sets would not do anything.
Hence, in our opinion, the algorithm design and method developments papers are equally worthy of getting cited

  1. Neese,F.; Olbrich,G.
     Efficient use of the resolution of the identity approximation in time-dependent density functional calculations with hybrid density functionals
     Chem. Phys. Lett., 2002 362 170-178
     doi.org/10.1016/s0009-2614(02)01053-9
  2. Neese,F.
     An improvement of the resolution of the identity approximation for the formation of the Coulomb matrix
     J. Comp. Chem., 2003 24(14)1740-1747
     doi.org/10.1002/jcc.10318
  3. Neese,F.; Wennmohs,F.; Hansen,A.; Becker,U.
     Efficient, approximate and parallel Hartree-Fock and hybrid DFT calculations. A 'chain-of-spheres' algorithm for the Hartree-Fock exchange
     Chem. Phys., 2009 356(1-3)98-109
     doi.org/10.1016/j.chemphys.2008.10.036
  4. Petrenko,T.; Kossmann,S.; Neese,F.
     Efficient time-dependent density functional theory approximations for hybrid density functionals: Analytical gradients and parallelization
     J. Chem. Phys., 2011 134 054116
     doi.org/10.1063/1.3533441
  5. Helmich-Paris,B.; de Souza,B.; Neese,F.; Izsák,R.
     An improved chain of spheres for exchange algorithm
     J. Chem. Phys., 2021 155 104109
     doi.org/doi: 10.1063/5.0058766.
  6. Neese,F.
     The SHARK Integral Generation and Digestion System
     J. Comp. Chem., 2022  1-16
     doi.org/10.1002/jcc.26942
  7. Lehtola,S.; Steigemann,C.; Oliveira,M.; Marques,M.
     Recent developments in Libxc - A comprehensive library of functionals for density functional theory
     Software X, 2018 7 
     doi.org/10.1016/j.softx.2017.11.002
  8. Grimme,S.; Antony,J.; Ehrlich,S.; Krieg,H.
     A consistent and accurate ab initio parametrization of density functional dispersion correction (DFT-D) for the 94 elements H-Pu
     J. Chem. Phys., 2010 132 154104-XXXX
     doi.org/10.1063/1.3382344
  9. Grimme,S.; Ehrlich,S.; Goerigk,L.
     Effect of the damping function in dispersion corrected density functional theory
     J. Comput. Chem., 2011 32(7)1456-1465
     doi.org/10.1002/jcc.21759

List of suggested additional citations. These are papers that are important in the 'surrounding' of 
of this run, or papers that preceded the highly important papers. If you like your results we are grateful for a citation.

  1. Izsak,R.; Neese,F.
     An overlap fitted chain of spheres exchange method
     J. Chem. Phys., 2011 135 144105
     doi.org/10.1063/1.3646921
  2. Izsak,R.; Hansen,A.; Neese,F.
     The resolution of identity and chain of spheres approximations for the LPNO-CCSD singles Fock term
     Molec. Phys., 2012 110 2413-2417
     doi.org/10.1080/00268976.2012.687466
  3. Neese,F.
     The ORCA program system
     WIRES Comput. Molec. Sci., 2012 2(1)73-78
     doi.org/10.1002/wcms.81
  4. Izsak,R.; Neese,F.; Klopper,W.
     Robust fitting techniques in the chain of spheres approximation to the Fock exchange: The role of the complementary space
     J. Chem. Phys., 2013 139 
     doi.org/10.1063/1.4819264
  5. Neese,F.
     Software update: the ORCA program system, version 4.0
     WIRES Comput. Molec. Sci., 2018 8(1)1-6
     doi.org/10.1002/wcms.1327
  6. Neese,F.; Wennmohs,F.; Becker,U.; Riplinger,C.
     The ORCA quantum chemistry program package
     J. Chem. Phys., 2020 152 Art. No. L224108
     doi.org/10.1063/5.0004608

List of optional additional citations

  1. Neese,F.
     Approximate second-order SCF convergence for spin unrestricted wavefunctions
     Chem. Phys. Lett., 2000 325(1-3)93-98
     doi.org/10.1016/s0009-2614(00)00662-x

Timings for individual modules:

Sum of individual times          ...      320.262 sec (=   5.338 min)
Startup calculation              ...        6.472 sec (=   0.108 min)   2.0 %
SCF iterations                   ...      121.270 sec (=   2.021 min)  37.9 %
Property integrals               ...        4.046 sec (=   0.067 min)   1.3 %
Property calculations            ...        2.804 sec (=   0.047 min)   0.9 %
CIS module                       ...      185.670 sec (=   3.094 min)  58.0 %
                             ****ORCA TERMINATED NORMALLY****
TOTAL RUN TIME: 0 days 0 hours 5 minutes 22 seconds 298 msec
