7
Properties=species:S:1:pos:R:3:momenta:R:3:forces:R:3 Coordinates=T from=T ORCA-job=T orca=T E=T -153.931009416206=T energy=-4184.075102789486 free_energy=-4184.075102789486 stress="8.810681114990324e-07 2.6619535423841073e-06 -2.9123849521128217e-06 2.6619535423841073e-06 5.231027326828086e-07 -8.127610032506717e-07 -2.9123849521128217e-06 -8.127610032506717e-07 -1.1210823650640613e-06" pbc="F F F"
O        0.06458649       1.34366141       0.25436267      -0.06078241       0.18462120       0.63400814      -0.01485106       0.48721465      -0.06795930
C        0.69073244       0.32639513      -0.28539261      -0.82549182       0.79910091       0.00608205      -0.49318059      -0.40921358      -0.17800203
C       -0.08846746      -1.00202522      -0.00063474       0.02060776      -0.85000700      -0.33575823       3.31589676       1.21943429       2.20008963
H        0.64981702      -1.80962980      -0.04091220       0.33573559      -0.55387310      -0.27403639      -0.49631619      -0.08532382      -0.41657499
H        1.67054717       0.54543151      -0.73816285       0.03833029       0.25902774      -0.07551767      -0.51982575      -0.53068985       0.11908921
H       -0.95432673      -1.14685338      -0.54424796       0.39700196       0.07084946       0.01558847      -1.47733402      -0.23023317      -1.36117327
H       -0.35204012      -0.86558628       1.06121657       0.09459862       0.09028079       0.02963362      -0.31438915      -0.45118852      -0.29546924
