
                                 *****************
                                 * O   R   C   A *
                                 *****************

                                            #,                                       
                                            ###                                      
                                            ####                                     
                                            #####                                    
                                            ######                                   
                                           ########,                                 
                                     ,,################,,,,,                         
                               ,,#################################,,                 
                          ,,##########################################,,             
                       ,#########################################, ''#####,          
                    ,#############################################,,   '####,        
                  ,##################################################,,,,####,       
                ,###########''''           ''''###############################       
              ,#####''   ,,,,##########,,,,          '''####'''          '####       
            ,##' ,,,,###########################,,,                        '##       
           ' ,,###''''                  '''############,,,                           
         ,,##''                                '''############,,,,        ,,,,,,###''
      ,#''                                            '''#######################'''  
     '                                                          ''''####''''         
             ,#######,   #######,   ,#######,      ##                                
            ,#'     '#,  ##    ##  ,#'     '#,    #''#        ,####,   ,####,        
            ##       ##  ##   ,#'  ##            #'  '#       #'       #'  '#        
            ##       ##  #######   ##           ,######,      #####,   #    #        
            '#,     ,#'  ##    ##  '#,     ,#' ,#      #,     #,   #   #,  ,#        
             '#######'   ##     ##  '#######'  #'      '#     '####' # '####'        



                #########################################################
                #                        -***-                          #
                #          Department of theory and spectroscopy        #
                #                                                       #
                #                      Frank Neese                      #
                #                                                       #
                #     Directorship, Architecture, Infrastructure        #
                #                    SHARK, DRIVERS                     #
                #        Core code/Algorithms in most modules           #
                #                                                       #
                #        Max Planck Institute fuer Kohlenforschung      #
                #                Kaiser Wilhelm Platz 1                 #
                #                 D-45470 Muelheim/Ruhr                 #
                #                      Germany                          #
                #                                                       #
                #                  All rights reserved                  #
                #                        -***-                          #
                #########################################################


                         Program Version 6.0.0  -   RELEASE  -


 With contributions from (in alphabetic order):
   Daniel Aravena         : Magnetic Suceptibility
   Michael Atanasov       : Ab Initio Ligand Field Theory (pilot matlab implementation)
   Alexander A. Auer      : GIAO ZORA, VPT2 properties, NMR spectrum
   Ute Becker             : All parallelization in ORCA, NUMFREQ, NUMCALC
   Giovanni Bistoni       : ED, misc. LED, open-shell LED, HFLD
   Martin Brehm           : Molecular dynamics
   Dmytro Bykov           : pre 5.0 version of the SCF Hessian
   Marcos Casanova-Páez   : Triplet and SCS-CIS(D). UHF-(DLPNO)-IP/EA/STEOM-CCSD. UHF-CVS-IP/STEOM-CCSD
   Vijay G. Chilkuri      : MRCI spin determinant printing, contributions to CSF-ICE
   Pauline Colinet        : FMM embedding
   Dipayan Datta          : RHF DLPNO-CCSD density
   Achintya Kumar Dutta   : EOM-CC, STEOM-CC
   Nicolas Foglia         : Exact transition moments, OPA infrastructure, MCD improvements
   Dmitry Ganyushin       : Spin-Orbit,Spin-Spin,Magnetic field MRCI
   Miquel Garcia          : C-PCM and meta-GGA Hessian, CCSD/C-PCM, Gaussian charge scheme
   Tiago L. C. Gouveia    : GS-ROHF, GS-ROCIS
   Yang Guo               : DLPNO-NEVPT2, F12-NEVPT2, CIM, IAO-localization
   Andreas Hansen         : Spin unrestricted coupled pair/coupled cluster methods
   Ingolf Harden          : AUTO-CI MPn and infrastructure 
   Benjamin Helmich-Paris : MC-RPA, TRAH-(SCF,CASSCF), AVAS, COSX integrals, SCF dyn. polar.
   Lee Huntington         : MR-EOM, pCC
   Robert Izsak           : Overlap fitted RIJCOSX, COSX-SCS-MP3, EOM
   Riya Kayal             : Wick's Theorem for AUTO-CI, AUTO-CI UHF-CCSDT
   Emily Kempfer          : AUTO-CI, RHF CISDT and CCSDT
   Christian Kollmar      : KDIIS, OOCD, Brueckner-CCSD(T), CCSD density, CASPT2, CASPT2-K, improved NEVPT2
   Axel Koslowski         : Symmetry handling
   Simone Kossmann        : Meta GGA functionals, TD-DFT gradient, OOMP2, (MP2 Hessian; deprecated post 5.0)
   Lucas Lang             : DCDCAS
   Marvin Lechner         : AUTO-CI (C++ implementation), FIC-MRCC
   Spencer Leger          : CASSCF response
   Dagmar Lenk            : GEPOL surface, SMD, ORCA-2-JSON
   Dimitrios Liakos       : Extrapolation schemes; Compound Job, initial MDCI parallelization
   Dimitrios Manganas     : Further ROCIS development; embedding schemes. LFT, Crystal Embedding
   Dimitrios Pantazis     : SARC Basis sets
   Anastasios Papadopoulos: AUTO-CI, single reference methods and gradients
   Taras Petrenko         : pre 6.0 DFT Hessian and TD-DFT gradient, (ASA, deprecated), ECA, 1-Electron XAS/XES, NRVS
   Peter Pinski           : DLPNO-MP2, DLPNO-MP2 Gradient
   Christoph Reimann      : Effective Core Potentials
   Marius Retegan         : Local ZFS, SOC
   Christoph Riplinger    : Optimizer, TS searches, QM/MM, DLPNO-CCSD(T), (RO)-DLPNO pert. Triples
   Michael Roemelt        : Original ROCIS implementation
   Masaaki Saitow         : Open-shell DLPNO-CCSD energy and density
   Barbara Sandhoefer     : DKH picture change effects
   Kantharuban Sivalingam : CASSCF convergence/infrastructure, NEVPT2 and variants, FIC-MRCI
   Bernardo de Souza      : ESD, SOC TD-DFT
   Georgi Stoychev        : AutoAux, RI-MP2 NMR, DLPNO-MP2 response, X2C
   Van Anh Tran           : RI-MP2 g-tensors
   Willem Van den Heuvel  : Paramagnetic NMR
   Zikuan Wang            : NOTCH, Electric field optimization 
   Frank Wennmohs         : Technical directorship and infrastructure
   Hang Xu                : AUTO-CI-Response properties 


 We gratefully acknowledge several colleagues who have allowed us to
 interface, adapt or use parts of their codes:
   Stefan Grimme, W. Hujo, H. Kruse, P. Pracht,  : VdW corrections, initial TS optimization,
                  C. Bannwarth, S. Ehlert,         DFT functionals, gCP, sTDA/sTD-DF
                  L. Wittmann, M. Mueller
   Ed Valeev, F. Pavosevic, A. Kumar             : LibInt (2-el integral package), F12 methods
   Garnet Chan, S. Sharma, J. Yang, R. Olivares  : DMRG
   Ulf Ekstrom                                   : XCFun DFT Library
   Mihaly Kallay                                 : mrcc  (arbitrary order and MRCC methods)
   Frank Weinhold                                : gennbo (NPA and NBO analysis)
   Simon Mueller                                 : openCOSMO-RS
   Christopher J. Cramer and Donald G. Truhlar   : smd solvation model
   Lars Goerigk                                  : TD-DFT with DH, B97 family of functionals
   V. Asgeirsson, H. Jonsson                     : NEB implementation
   FAccTs GmbH                                   : IRC, NEB, NEB-TS, DLPNO-Multilevel, CI-OPT
                                                   MM, QMMM, 2- and 3-layer-ONIOM, Crystal-QMMM,
                                                   LR-CPCM, SF, NACMEs, symmetry and pop. for TD-DFT,
                                                   nearIR, NL-DFT gradient (VV10), updates on ESD,
                                                   ML-optimized integration grids, MBIS, APM,
                                                   GOAT, DOCKER, SOLVATOR, interface openCOSMO-RS
   S Lehtola, MJT Oliveira, MAL Marques          : LibXC Library
   Liviu Ungur et al                             : ANISO software


 Your calculation uses the libint2 library for the computation of 2-el integrals
 For citations please refer to: http://libint.valeyev.net

 Your ORCA version has been built with support for libXC version: 6.2.2
 For citations please refer to: https://libxc.gitlab.io

 This ORCA versions uses:
   CBLAS   interface :  Fast vector & matrix operations
   LAPACKE interface :  Fast linear algebra routines
   SCALAPACK package :  Parallel linear algebra routines
   Shared memory     :  Shared parallel matrices
   BLAS/LAPACK       :  OpenBLAS 0.3.27  USE64BITINT DYNAMIC_ARCH NO_AFFINITY Zen SINGLE_THREADED
        Core in use  :  Zen
   Copyright (c) 2011-2014, The OpenBLAS Project


Your calculation utilizes the atom-pairwise dispersion correction
with the Becke-Johnson damping scheme (D3BJ)


Warning: RI is on but no J-basis has been assigned. Assigning Def2/J (nothing to worry about!)
================================================================================

----- Orbital basis set information -----
Your calculation utilizes the basis: def2-TZVPPD
   F. Weigend and R. Ahlrichs, Phys. Chem. Chem. Phys. 7, 3297 (2005).
   D. Rappoport and F. Furche, J. Chem. Phys. 133, 134105 (2010)
   D. Rappoport, J. Chem. Phys. 155, 124102 (2021).

----- AuxJ basis set information -----
Your calculation utilizes the auxiliary basis: def2/J
   F. Weigend, Phys. Chem. Chem. Phys. 8, 1057 (2006).

================================================================================
                                        WARNINGS
                       Please study these warnings very carefully!
================================================================================

Using LibXC functional ID 531 : wB97M-V exchange-correlation functional
[ 1]  N. Mardirossian and M. Head-Gordon.,  J. Chem. Phys. 144, 214110 (2016)
Using LibXC functional ID 531 : wB97M-V exchange-correlation functional
[ 1]  N. Mardirossian and M. Head-Gordon.,  J. Chem. Phys. 144, 214110 (2016)

WARNING: B97M-V or wB97M-V functional requested.
  ===> : libXC variant has now been activated.
         Any manually given DFX/HFX/RangeSep scaling parameters are IGNORED!

Your calculation utilizes LibXC
 by S Lehtola, C Steigemann, MJT Oliveira & MAL Marques
Please cite in your paper:
 S Lehtola, C Steigemann, MJT Oliveira & MAL Marques, SoftwareX, 7, (2018), 1.
   


WARNING: your system is open-shell and RHF/RKS was chosen
  ===> : WILL SWITCH to UHF/UKS

INFO   : Checking CIS options ...

WARNING: CIS/ROCIS methods need fully converged wavefunctions
  ===> : Setting SCFConvForced true
         You can overwrite this default with %scf ConvForced false 


================================================================================
                                       INPUT FILE
================================================================================
NAME = orca.inp
|  1> ! Engrad def2-TZVPPD wB97M-D3BJ 
|  2> %pal nprocs 8 end%pal nprocs 64 end 
|  3> %tddft 
|  4>  Iroot 1 Nroots 3 
|  5> sf true 
|  6> end 
|  7> *xyz 0 3 
|  8> O   3.44671536 -0.07723655 -1.05345349
|  9> O   -1.50196158 0.666754 -2.48496427
| 10> O   0.29172551 -3.18702169 -0.46262971
| 11> O   -3.63614421 -0.35924024 1.43477917
| 12> N   0.24191698 -1.35232575 0.8822485
| 13> N   -1.71162227 0.73035445 1.50964752
| 14> N   1.61774205 -1.40294378 -0.91835124
| 15> N   -2.5705006 0.03212264 -0.52597455
| 16> C   1.87366901 0.32807874 0.72963925
| 17> C   -0.45315762 1.34429854 -0.52508129
| 18> C   0.57031946 -0.03700295 1.31656601
| 19> C   -0.43754475 1.12780038 0.92797035
| 20> C   2.70934331 1.39503155 1.37203259
| 21> C   0.61849342 2.04190753 -1.35602156
| 22> C   2.42453319 -0.37533728 -0.50991526
| 23> C   -1.55092113 0.66277365 -1.22204
| 24> C   0.68807381 -2.07773647 -0.19760308
| 25> C   -2.67713179 0.096885 0.8448675
| 26> H   0.54125032 -0.06304355 2.42981474
| 27> H   0.04957599 1.97215508 1.47614605
| 28> H   3.64322271 1.62270462 0.81176195
| 29> H   2.35837188 2.44283373 1.51778023
| 30> H   3.11790398 1.1168005 2.37288183
| 31> H   0.20250588 2.65558901 -2.13835573
| 32> H   1.28026726 2.5567258 -0.73992855
| 33> H   1.21298451 1.30094163 -1.90082378
| 34> H   -0.36744464 -1.82876753 1.51343236
| 35> H   -1.64267703 0.56574031 2.51048809
| 36> H   2.14582693 -2.00589055 -1.57844386
| 37> H   -3.40541878 -0.3676867 -1.0933624
| 38> *
| 39> 
| 40>                          ****END OF INPUT****
================================================================================

                     *******************************
                     * Energy+Gradient Calculation *
                     *******************************

---------------------------------
CARTESIAN COORDINATES (ANGSTROEM)
---------------------------------
  O      3.446715   -0.077237   -1.053453
  O     -1.501962    0.666754   -2.484964
  O      0.291726   -3.187022   -0.462630
  O     -3.636144   -0.359240    1.434779
  N      0.241917   -1.352326    0.882248
  N     -1.711622    0.730354    1.509648
  N      1.617742   -1.402944   -0.918351
  N     -2.570501    0.032123   -0.525975
  C      1.873669    0.328079    0.729639
  C     -0.453158    1.344299   -0.525081
  C      0.570319   -0.037003    1.316566
  C     -0.437545    1.127800    0.927970
  C      2.709343    1.395032    1.372033
  C      0.618493    2.041908   -1.356022
  C      2.424533   -0.375337   -0.509915
  C     -1.550921    0.662774   -1.222040
  C      0.688074   -2.077736   -0.197603
  C     -2.677132    0.096885    0.844867
  H      0.541250   -0.063044    2.429815
  H      0.049576    1.972155    1.476146
  H      3.643223    1.622705    0.811762
  H      2.358372    2.442834    1.517780
  H      3.117904    1.116801    2.372882
  H      0.202506    2.655589   -2.138356
  H      1.280267    2.556726   -0.739929
  H      1.212985    1.300942   -1.900824
  H     -0.367445   -1.828768    1.513432
  H     -1.642677    0.565740    2.510488
  H      2.145827   -2.005891   -1.578444
  H     -3.405419   -0.367687   -1.093362

----------------------------
CARTESIAN COORDINATES (A.U.)
----------------------------
  NO LB      ZA    FRAG     MASS         X           Y           Z
   0 O     8.0000    0    15.999    6.513348   -0.145956   -1.990739
   1 O     8.0000    0    15.999   -2.838296    1.259982   -4.695902
   2 O     8.0000    0    15.999    0.551281   -6.022598   -0.874243
   3 O     8.0000    0    15.999   -6.871317   -0.678866    2.711340
   4 N     7.0000    0    14.007    0.457157   -2.555525    1.667208
   5 N     7.0000    0    14.007   -3.234497    1.380170    2.852820
   6 N     7.0000    0    14.007    3.057089   -2.651180   -1.735432
   7 N     7.0000    0    14.007   -4.857542    0.060703   -0.993948
   8 C     6.0000    0    12.011    3.540721    0.619979    1.378818
   9 C     6.0000    0    12.011   -0.856344    2.540356   -0.992260
  10 C     6.0000    0    12.011    1.077748   -0.069925    2.487949
  11 C     6.0000    0    12.011   -0.826840    2.131234    1.753610
  12 C     6.0000    0    12.011    5.119917    2.636228    2.592766
  13 C     6.0000    0    12.011    1.168783    3.858646   -2.562509
  14 C     6.0000    0    12.011    4.581704   -0.709285   -0.963600
  15 C     6.0000    0    12.011   -2.930816    1.252461   -2.309321
  16 C     6.0000    0    12.011    1.300271   -3.926353   -0.373416
  17 C     6.0000    0    12.011   -5.059046    0.183086    1.596568
  18 H     1.0000    0     1.008    1.022815   -0.119135    4.591684
  19 H     1.0000    0     1.008    0.093685    3.726833    2.789512
  20 H     1.0000    0     1.008    6.884693    3.066467    1.534008
  21 H     1.0000    0     1.008    4.456677    4.616287    2.868189
  22 H     1.0000    0     1.008    5.891985    2.110447    4.484097
  23 H     1.0000    0     1.008    0.382681    5.018336   -4.040907
  24 H     1.0000    0     1.008    2.419354    4.831512   -1.398262
  25 H     1.0000    0     1.008    2.292209    2.458423   -3.592036
  26 H     1.0000    0     1.008   -0.694370   -3.455870    2.859973
  27 H     1.0000    0     1.008   -3.104210    1.069094    4.744135
  28 H     1.0000    0     1.008    4.055025   -3.790584   -2.982827
  29 H     1.0000    0     1.008   -6.435309   -0.694827   -2.066156

--------------------------------
INTERNAL COORDINATES (ANGSTROEM)
--------------------------------
 O      0   0   0     0.000000000000     0.00000000     0.00000000
 O      1   0   0     5.205011864370     0.00000000     0.00000000
 O      1   2   0     4.469205444996    57.63191391     0.00000000
 O      2   1   3     4.579496513169   100.11659214    52.68930332
 N      3   1   2     2.275365351245    62.12954407   287.43982504
 N      4   2   1     2.212827728462    60.87807255    37.71486689
 N      1   2   3     2.262939602889    48.06644376     0.22380875
 N      4   2   1     2.265682316184     2.99990271   280.13453187
 C      5   3   1     2.347267245246   121.57435813   358.06951353
 C      2   1   3     2.323832533874    51.72948281    96.79038895
 C      5   3   1     1.423570847047   156.96908822    14.24006128
 C      6   4   2     1.455879501999   151.88590805   338.01547645
 C      9   5   3     1.499802999638   150.31730190   211.50833171
 C     10   2   1     1.524977372543    89.48370776    54.26911950
 C      1   2   3     1.195472392556    49.28863119   319.66628297
 C      2   1   3     1.263879184288    76.20562998    69.34906048
 C      3   1   2     1.207412435265    32.64904673   297.38907325
 C      4   2   1     1.214804854568    29.81152369    32.89900292
 H     11   5   3     1.113932611335   106.09812748   212.43837205
 H     12   6   4     1.118355074572   113.04469802   166.64644806
 H     13   9   5     1.112595591666   113.42659846   156.70500239
 H     13   9   5     1.114590834187   123.32058180   274.38590057
 H     13   9   5     1.116258724250   114.24589752    41.32780589
 H     14  10   2     1.077820646434   112.62799649    48.05959648
 H     14  10   2     1.040458102667   110.52817124   175.74830513
 H     14  10   2     1.095107108903   110.06216572   293.11563572
 H      5   3   1     0.998354355318    90.12840813   196.50587978
 H      6   4   2     1.016628303641    90.71965258   192.31242550
 H      7   1   2     1.038335550252    83.75248293   115.55286284
 H      8   4  18     1.085755427329    91.54467410   184.32540869

---------------------------
INTERNAL COORDINATES (A.U.)
---------------------------
 O      0   0   0     0.000000000000     0.00000000     0.00000000
 O      1   0   0     9.836046947470     0.00000000     0.00000000
 O      1   2   0     8.445574327272    57.63191391     0.00000000
 O      2   1   3     8.653994241137   100.11659214    52.68930332
 N      3   1   2     4.299817368466    62.12954407   287.43982504
 N      4   2   1     4.181638388340    60.87807255    37.71486689
 N      1   2   3     4.276336107064    48.06644376     0.22380875
 N      4   2   1     4.281519084056     2.99990271   280.13453187
 C      5   3   1     4.435692256640   121.57435813   358.06951353
 C      2   1   3     4.391407070117    51.72948281    96.79038895
 C      5   3   1     2.690159033153   156.96908822    14.24006128
 C      6   4   2     2.751213542769   151.88590805   338.01547645
 C      9   5   3     2.834216924150   150.31730190   211.50833171
 C     10   2   1     2.881789594534    89.48370776    54.26911950
 C      1   2   3     2.259115422595    49.28863119   319.66628297
 C      2   1   3     2.388385524669    76.20562998    69.34906048
 C      3   1   2     2.281678833342    32.64904673   297.38907325
 C      4   2   1     2.295648481291    29.81152369    32.89900292
 H     11   5   3     2.105027567067   106.09812748   212.43837205
 H     12   6   4     2.113384811422   113.04469802   166.64644806
 H     13   9   5     2.102500966056   113.42659846   156.70500239
 H     13   9   5     2.106271427993   123.32058180   274.38590057
 H     13   9   5     2.109423283432   114.24589752    41.32780589
 H     14  10   2     2.036785843247   112.62799649    48.05959648
 H     14  10   2     1.966180867860   110.52817124   175.74830513
 H     14  10   2     2.069452523136   110.06216572   293.11563572
 H      5   3   1     1.886616316159    90.12840813   196.50587978
 H      6   4   2     1.921149073875    90.71965258   192.31242550
 H      7   1   2     1.962169825090    83.75248293   115.55286284
 H      8   4  18     2.051780406070    91.54467410   184.32540869

---------------------
BASIS SET INFORMATION
---------------------
There are 4 groups of distinct atoms

 Group   1 Type O   : 12s7p3d1f contracted to 6s4p3d1f pattern {621111/4111/111/1}
 Group   2 Type N   : 12s6p3d1f contracted to 6s3p3d1f pattern {621111/411/111/1}
 Group   3 Type C   : 12s6p3d1f contracted to 6s3p3d1f pattern {621111/411/111/1}
 Group   4 Type H   : 5s3p1d contracted to 3s3p1d pattern {311/111/1}

Atom   0O    basis set group =>   1
Atom   1O    basis set group =>   1
Atom   2O    basis set group =>   1
Atom   3O    basis set group =>   1
Atom   4N    basis set group =>   2
Atom   5N    basis set group =>   2
Atom   6N    basis set group =>   2
Atom   7N    basis set group =>   2
Atom   8C    basis set group =>   3
Atom   9C    basis set group =>   3
Atom  10C    basis set group =>   3
Atom  11C    basis set group =>   3
Atom  12C    basis set group =>   3
Atom  13C    basis set group =>   3
Atom  14C    basis set group =>   3
Atom  15C    basis set group =>   3
Atom  16C    basis set group =>   3
Atom  17C    basis set group =>   3
Atom  18H    basis set group =>   4
Atom  19H    basis set group =>   4
Atom  20H    basis set group =>   4
Atom  21H    basis set group =>   4
Atom  22H    basis set group =>   4
Atom  23H    basis set group =>   4
Atom  24H    basis set group =>   4
Atom  25H    basis set group =>   4
Atom  26H    basis set group =>   4
Atom  27H    basis set group =>   4
Atom  28H    basis set group =>   4
Atom  29H    basis set group =>   4
---------------------------------
AUXILIARY/J BASIS SET INFORMATION
---------------------------------
There are 4 groups of distinct atoms

 Group   1 Type O   : 12s5p4d2f1g contracted to 6s4p3d1f1g pattern {711111/2111/211/2/1}
 Group   2 Type N   : 12s5p4d2f1g contracted to 6s4p3d1f1g pattern {711111/2111/211/2/1}
 Group   3 Type C   : 12s5p4d2f1g contracted to 6s4p3d1f1g pattern {711111/2111/211/2/1}
 Group   4 Type H   : 5s2p1d contracted to 3s1p1d pattern {311/2/1}

Atom   0O    basis set group =>   1
Atom   1O    basis set group =>   1
Atom   2O    basis set group =>   1
Atom   3O    basis set group =>   1
Atom   4N    basis set group =>   2
Atom   5N    basis set group =>   2
Atom   6N    basis set group =>   2
Atom   7N    basis set group =>   2
Atom   8C    basis set group =>   3
Atom   9C    basis set group =>   3
Atom  10C    basis set group =>   3
Atom  11C    basis set group =>   3
Atom  12C    basis set group =>   3
Atom  13C    basis set group =>   3
Atom  14C    basis set group =>   3
Atom  15C    basis set group =>   3
Atom  16C    basis set group =>   3
Atom  17C    basis set group =>   3
Atom  18H    basis set group =>   4
Atom  19H    basis set group =>   4
Atom  20H    basis set group =>   4
Atom  21H    basis set group =>   4
Atom  22H    basis set group =>   4
Atom  23H    basis set group =>   4
Atom  24H    basis set group =>   4
Atom  25H    basis set group =>   4
Atom  26H    basis set group =>   4
Atom  27H    basis set group =>   4
Atom  28H    basis set group =>   4
Atom  29H    basis set group =>   4
[1741103622.681982] [ohm:829027:0]        ib_iface.c:1059 UCX  ERROR ibv_create_cq(cqe=256) failed: Connection timed out
[1741103622.697974] [ohm:829025:0]        ib_iface.c:1059 UCX  ERROR ibv_create_cq(cqe=256) failed: Connection timed out
[1741103622.701623] [ohm:829026:0]        ib_iface.c:1059 UCX  ERROR ibv_create_cq(cqe=256) failed: Connection timed out
[1741103622.711353] [ohm:829029:0]        ib_iface.c:1059 UCX  ERROR ibv_create_cq(cqe=256) failed: Connection timed out
[1741103622.731890] [ohm:829030:0]        ib_iface.c:1059 UCX  ERROR ibv_create_cq(cqe=256) failed: Connection timed out
[1741103622.738830] [ohm:829038:0]        ib_iface.c:1059 UCX  ERROR ibv_create_cq(cqe=256) failed: Connection timed out
[1741103622.749805] [ohm:829033:0]        ib_iface.c:1059 UCX  ERROR ibv_create_cq(cqe=256) failed: Connection timed out
[1741103622.751035] [ohm:829031:0]        ib_iface.c:1059 UCX  ERROR ibv_create_cq(cqe=256) failed: Connection timed out
[1741103622.764565] [ohm:829032:0]        ib_iface.c:1059 UCX  ERROR ibv_create_cq(cqe=256) failed: Connection timed out
[1741103622.788707] [ohm:829037:0]        ib_iface.c:1059 UCX  ERROR ibv_create_cq(cqe=256) failed: Connection timed out
[1741103622.789244] [ohm:829042:0]        ib_iface.c:1059 UCX  ERROR ibv_create_cq(cqe=256) failed: Connection timed out
[1741103622.792661] [ohm:829043:0]        ib_iface.c:1059 UCX  ERROR ibv_create_cq(cqe=256) failed: Connection timed out
[1741103622.799907] [ohm:829044:0]        ib_iface.c:1059 UCX  ERROR ibv_create_cq(cqe=256) failed: Connection timed out
[1741103622.809242] [ohm:829049:0]        ib_iface.c:1059 UCX  ERROR ibv_create_cq(cqe=256) failed: Connection timed out
[1741103622.820565] [ohm:829036:0]        ib_iface.c:1059 UCX  ERROR ibv_create_cq(cqe=256) failed: Connection timed out
[1741103622.823745] [ohm:829047:0]        ib_iface.c:1059 UCX  ERROR ibv_create_cq(cqe=256) failed: Connection timed out
[1741103622.827754] [ohm:829040:0]        ib_iface.c:1059 UCX  ERROR ibv_create_cq(cqe=256) failed: Connection timed out
[1741103622.897182] [ohm:829094:0]        ib_iface.c:1059 UCX  ERROR ibv_create_cq(cqe=256) failed: Connection timed out
[1741103622.898448] [ohm:829034:0]        ib_iface.c:1059 UCX  ERROR ibv_create_cq(cqe=256) failed: Connection timed out
[1741103622.903990] [ohm:829119:0]        ib_iface.c:1059 UCX  ERROR ibv_create_cq(cqe=256) failed: Connection timed out
[1741103622.906265] [ohm:829082:0]        ib_iface.c:1059 UCX  ERROR ibv_create_cq(cqe=256) failed: Connection timed out
[1741103622.906969] [ohm:829088:0]        ib_iface.c:1059 UCX  ERROR ibv_create_cq(cqe=256) failed: Connection timed out
[1741103622.908868] [ohm:829051:0]        ib_iface.c:1059 UCX  ERROR ibv_create_cq(cqe=256) failed: Connection timed out
[1741103622.914838] [ohm:829153:0]        ib_iface.c:1059 UCX  ERROR ibv_create_cq(cqe=256) failed: Connection timed out
[1741103622.919776] [ohm:829075:0]        ib_iface.c:1059 UCX  ERROR ibv_create_cq(cqe=256) failed: Connection timed out
[1741103622.921131] [ohm:829127:0]        ib_iface.c:1059 UCX  ERROR ibv_create_cq(cqe=256) failed: Connection timed out
[1741103622.932909] [ohm:829063:0]        ib_iface.c:1059 UCX  ERROR ibv_create_cq(cqe=256) failed: Connection timed out
[1741103622.936161] [ohm:829035:0]        ib_iface.c:1059 UCX  ERROR ibv_create_cq(cqe=256) failed: Connection timed out
[1741103622.936456] [ohm:829133:0]        ib_iface.c:1059 UCX  ERROR ibv_create_cq(cqe=256) failed: Connection timed out
[1741103622.941101] [ohm:829110:0]        ib_iface.c:1059 UCX  ERROR ibv_create_cq(cqe=256) failed: Connection timed out
[1741103622.942260] [ohm:829099:0]        ib_iface.c:1059 UCX  ERROR ibv_create_cq(cqe=256) failed: Connection timed out
[1741103622.968539] [ohm:829060:0]        ib_iface.c:1059 UCX  ERROR ibv_create_cq(cqe=256) failed: Connection timed out
[1741103622.976081] [ohm:829028:0]        ib_iface.c:1059 UCX  ERROR ibv_create_cq(cqe=256) failed: Connection timed out
[1741103622.980631] [ohm:829163:0]        ib_iface.c:1059 UCX  ERROR ibv_create_cq(cqe=256) failed: Connection timed out
[1741103622.981899] [ohm:829048:0]        ib_iface.c:1059 UCX  ERROR ibv_create_cq(cqe=256) failed: Connection timed out
[1741103622.987648] [ohm:829107:0]        ib_iface.c:1059 UCX  ERROR ibv_create_cq(cqe=256) failed: Connection timed out
[1741103622.990432] [ohm:829039:0]        ib_iface.c:1059 UCX  ERROR ibv_create_cq(cqe=256) failed: Connection timed out
[1741103622.993310] [ohm:829170:0]        ib_iface.c:1059 UCX  ERROR ibv_create_cq(cqe=256) failed: Connection timed out
[1741103622.994186] [ohm:829135:0]        ib_iface.c:1059 UCX  ERROR ibv_create_cq(cqe=256) failed: Connection timed out
[1741103622.997201] [ohm:829084:0]        ib_iface.c:1059 UCX  ERROR ibv_create_cq(cqe=256) failed: Connection timed out
[1741103622.997201] [ohm:829045:0]        ib_iface.c:1059 UCX  ERROR ibv_create_cq(cqe=256) failed: Connection timed out
[1741103623.003631] [ohm:829117:0]        ib_iface.c:1059 UCX  ERROR ibv_create_cq(cqe=256) failed: Connection timed out
[1741103623.015570] [ohm:829041:0]        ib_iface.c:1059 UCX  ERROR ibv_create_cq(cqe=256) failed: Connection timed out
[1741103623.015638] [ohm:829112:0]        ib_iface.c:1059 UCX  ERROR ibv_create_cq(cqe=256) failed: Connection timed out
[1741103623.015854] [ohm:829142:0]        ib_iface.c:1059 UCX  ERROR ibv_create_cq(cqe=256) failed: Connection timed out
[1741103623.021515] [ohm:829053:0]        ib_iface.c:1059 UCX  ERROR ibv_create_cq(cqe=256) failed: Connection timed out
[1741103623.027879] [ohm:829156:0]        ib_iface.c:1059 UCX  ERROR ibv_create_cq(cqe=256) failed: Connection timed out
[1741103623.031664] [ohm:829079:0]        ib_iface.c:1059 UCX  ERROR ibv_create_cq(cqe=256) failed: Connection timed out
[1741103623.035030] [ohm:829139:0]        ib_iface.c:1059 UCX  ERROR ibv_create_cq(cqe=256) failed: Connection timed out
[1741103623.037797] [ohm:829077:0]        ib_iface.c:1059 UCX  ERROR ibv_create_cq(cqe=256) failed: Connection timed out
[1741103623.039450] [ohm:829148:0]        ib_iface.c:1059 UCX  ERROR ibv_create_cq(cqe=256) failed: Connection timed out
[1741103623.040397] [ohm:829055:0]        ib_iface.c:1059 UCX  ERROR ibv_create_cq(cqe=256) failed: Connection timed out
[1741103623.043251] [ohm:829070:0]        ib_iface.c:1059 UCX  ERROR ibv_create_cq(cqe=256) failed: Connection timed out
[1741103623.044134] [ohm:829072:0]        ib_iface.c:1059 UCX  ERROR ibv_create_cq(cqe=256) failed: Connection timed out
[1741103623.045732] [ohm:829178:0]        ib_iface.c:1059 UCX  ERROR ibv_create_cq(cqe=256) failed: Connection timed out
[1741103623.047484] [ohm:829150:0]        ib_iface.c:1059 UCX  ERROR ibv_create_cq(cqe=256) failed: Connection timed out
[1741103623.049836] [ohm:829050:0]        ib_iface.c:1059 UCX  ERROR ibv_create_cq(cqe=256) failed: Connection timed out
[1741103623.053536] [ohm:829068:0]        ib_iface.c:1059 UCX  ERROR ibv_create_cq(cqe=256) failed: Connection timed out
[1741103623.053873] [ohm:829129:0]        ib_iface.c:1059 UCX  ERROR ibv_create_cq(cqe=256) failed: Connection timed out
[1741103623.056898] [ohm:829158:0]        ib_iface.c:1059 UCX  ERROR ibv_create_cq(cqe=256) failed: Connection timed out
[1741103623.059228] [ohm:829144:0]        ib_iface.c:1059 UCX  ERROR ibv_create_cq(cqe=256) failed: Connection timed out
[1741103623.060566] [ohm:829122:0]        ib_iface.c:1059 UCX  ERROR ibv_create_cq(cqe=256) failed: Connection timed out
[1741103623.060543] [ohm:829046:0]        ib_iface.c:1059 UCX  ERROR ibv_create_cq(cqe=256) failed: Connection timed out
[1741103623.060644] [ohm:829101:0]        ib_iface.c:1059 UCX  ERROR ibv_create_cq(cqe=256) failed: Connection timed out


           ************************************************************
           *        Program running with 64 parallel MPI-processes    *
           *              working on a common directory               *
           ************************************************************
------------------------------------------------------------------------------
                             ORCA STARTUP CALCULATIONS
                           -- RI-GTO INTEGRALS CHOSEN --
------------------------------------------------------------------------------
------------------------------------------------------------------------------
                   ___                                                        
                  /   \      - P O W E R E D   B Y -                         
                 /     \                                                     
                 |  |  |   _    _      __       _____    __    __             
                 |  |  |  | |  | |    /  \     |  _  \  |  |  /  |          
                  \  \/   | |  | |   /    \    | | | |  |  | /  /          
                 / \  \   | |__| |  /  /\  \   | |_| |  |  |/  /          
                |  |  |   |  __  | /  /__\  \  |    /   |      \           
                |  |  |   | |  | | |   __   |  |    \   |  |\   \          
                \     /   | |  | | |  |  |  |  | |\  \  |  | \   \       
                 \___/    |_|  |_| |__|  |__|  |_| \__\ |__|  \__/        
                                                                              
                      - O R C A' S   B I G   F R I E N D -                    
                                      &                                       
                       - I N T E G R A L  F E E D E R -                       
                                                                              
 v1 FN, 2020, v2 2021, v3 2022-2024                                           
------------------------------------------------------------------------------


----------------------
SHARK INTEGRAL PACKAGE
----------------------

Number of atoms                             ...     30
Number of basis functions                   ...    882
Number of shells                            ...    322
Maximum angular momentum                    ...      3
Integral batch strategy                     ... SHARK/LIBINT Hybrid
RI-J (if used) integral strategy            ... SPLIT-RIJ (Revised 2003 algorithm where possible)
Printlevel                                  ...      1
Contraction scheme used                     ... SEGMENTED contraction
Prescreening option                         ... SCHWARTZ
   Thresh                                   ... 2.500e-11
   Tcut                                     ... 2.500e-12
   Tpresel                                  ... 2.500e-12 
Coulomb Range Separation                    ... NOT USED
Exchange Range Separation                   ... Long Range
   Mu parameter                             ... 3.000e-01
   Scaling (regular/separated)              ... 1.500e-01 8.500e-01
Multipole approximations                    ... NOT USED
Finite Nucleus Model                        ... NOT USED
CABS basis                                  ... NOT available
Auxiliary Coulomb fitting basis             ... AVAILABLE
   # of basis functions in Aux-J            ...   1014
   # of shells in Aux-J                     ...    330
   Maximum angular momentum in Aux-J        ...      4
Auxiliary J/K fitting basis                 ... NOT available
Auxiliary Correlation fitting basis         ... NOT available
Auxiliary 'external' fitting basis          ... NOT available

Checking pre-screening integrals            ... done (  0.0 sec) Dimension = 322
Check shell pair data                       ... done (  0.0 sec)
Shell pair information
Shell pair cut-off parameter TPreSel        ...   2.5e-12
Total number of shell pairs                 ...     52003
Shell pairs after pre-screening             ...     44907
Total number of primitive shell pairs       ...    129718
Primitive shell pairs kept                  ...     83942
          la=0 lb=0:   8698 shell pairs
          la=1 lb=0:  11890 shell pairs
          la=1 lb=1:   4110 shell pairs
          la=2 lb=0:   8079 shell pairs
          la=2 lb=1:   5592 shell pairs
          la=2 lb=2:   1930 shell pairs
          la=3 lb=0:   2040 shell pairs
          la=3 lb=1:   1450 shell pairs
          la=3 lb=2:    985 shell pairs
          la=3 lb=3:    133 shell pairs

Calculating one electron integrals          ... done (  0.2 sec)
Calculating RI/J V-Matrix + Cholesky decomp.... done (  0.1 sec)
Calculating Nuclear repulsion               ... done (  0.0 sec) ENN=   1434.766064495745 Eh

Diagonalization of the overlap matrix:
Smallest eigenvalue                        ... 6.113e-07
Time for diagonalization                   ...    0.125 sec
Threshold for overlap eigenvalues          ... 1.000e-07
Number of eigenvalues below threshold      ... 0

IMPORTANT:
Smallest eigenvalue of S below the DiffSThresh (1.000e-06) while
Thresh>1e-12 and/or TCut>1e-13! In order to avoid SCF convergence issues,
Thresh will be set to at least 1e-12 and TCut to at least 1e-13.
This can be turned off by adding %SCF DiffSThresh -1 END to the input.

Time for construction of square roots      ...    0.134 sec
Total time needed                          ...    0.273 sec

-------------------
DFT GRID GENERATION
-------------------

General Integration Accuracy     IntAcc      ... 4.388
Radial Grid Type                 RadialGrid  ... OptM3 with GC (2021)
Angular Grid (max. ang.)         AngularGrid ... 4 (Lebedev-302)
Angular grid pruning method      GridPruning ... 4 (adaptive)
Weight generation scheme         WeightScheme... mBecke (2022)
Basis function cutoff            BFCut       ... 1.0000e-11
Integration weight cutoff        WCut        ... 1.0000e-14
Partially contracted basis set               ... off
Rotationally invariant grid construction     ... off
Angular grids for H and He will be reduced by one unit
Diffuse basis detected: some atoms will have their outermost
                        angular grid increased by 1.

Total number of grid points                  ...   151940
Total number of batches                      ...     2390
Average number of points per batch           ...       63
Average number of grid points per atom       ...     5065

--------------------
COSX GRID GENERATION
--------------------

GRIDX 1
-------
General Integration Accuracy     IntAcc      ... 3.816
Radial Grid Type                 RadialGrid  ... OptM3 with GC (2021)
Angular Grid (max. ang.)         AngularGrid ... 1 (Lebedev-50)
Angular grid pruning method      GridPruning ... 4 (adaptive)
Weight generation scheme         WeightScheme... mBecke (2022)
Basis function cutoff            BFCut       ... 1.0000e-11
Integration weight cutoff        WCut        ... 1.0000e-14
Partially contracted basis set               ... on
Rotationally invariant grid construction     ... off
Angular grids for H and He will be reduced by one unit
Diffuse basis detected: some atoms will have their outermost
                        angular grid increased by 1.

Total number of grid points                  ...    19010
Total number of batches                      ...      166
Average number of points per batch           ...      114
Average number of grid points per atom       ...      634
UseSFitting                                  ... on

GRIDX 2
-------
General Integration Accuracy     IntAcc      ... 4.020
Radial Grid Type                 RadialGrid  ... OptM3 with GC (2021)
Angular Grid (max. ang.)         AngularGrid ... 2 (Lebedev-110)
Angular grid pruning method      GridPruning ... 4 (adaptive)
Weight generation scheme         WeightScheme... mBecke (2022)
Basis function cutoff            BFCut       ... 1.0000e-11
Integration weight cutoff        WCut        ... 1.0000e-14
Partially contracted basis set               ... on
Rotationally invariant grid construction     ... off
Angular grids for H and He will be reduced by one unit
Diffuse basis detected: some atoms will have their outermost
                        angular grid increased by 1.

Total number of grid points                  ...    45904
Total number of batches                      ...      376
Average number of points per batch           ...      122
Average number of grid points per atom       ...     1530
UseSFitting                                  ... on

GRIDX 3
-------
General Integration Accuracy     IntAcc      ... 4.338
Radial Grid Type                 RadialGrid  ... OptM3 with GC (2021)
Angular Grid (max. ang.)         AngularGrid ... 3 (Lebedev-194)
Angular grid pruning method      GridPruning ... 4 (adaptive)
Weight generation scheme         WeightScheme... mBecke (2022)
Basis function cutoff            BFCut       ... 1.0000e-11
Integration weight cutoff        WCut        ... 1.0000e-14
Partially contracted basis set               ... on
Rotationally invariant grid construction     ... off
Angular grids for H and He will be reduced by one unit
Diffuse basis detected: some atoms will have their outermost
                        angular grid increased by 1.

Total number of grid points                  ...   100990
Total number of batches                      ...      805
Average number of points per batch           ...      125
Average number of grid points per atom       ...     3366
UseSFitting                                  ... on
Initializing property integral containers    ... done (  0.0 sec)

SHARK setup successfully completed in   4.2 seconds

Maximum memory used throughout the entire STARTUP-calculation: 79.9 MB
[1741103629.291055] [ohm:829411:0]        ib_iface.c:1059 UCX  ERROR ibv_create_cq(cqe=256) failed: Connection timed out
[1741103629.301609] [ohm:829409:0]        ib_iface.c:1059 UCX  ERROR ibv_create_cq(cqe=256) failed: Connection timed out
[1741103629.318234] [ohm:829408:0]        ib_iface.c:1059 UCX  ERROR ibv_create_cq(cqe=256) failed: Connection timed out
[1741103629.327554] [ohm:829410:0]        ib_iface.c:1059 UCX  ERROR ibv_create_cq(cqe=256) failed: Connection timed out
[1741103629.372685] [ohm:829418:0]        ib_iface.c:1059 UCX  ERROR ibv_create_cq(cqe=256) failed: Connection timed out
[1741103629.381609] [ohm:829407:0]        ib_iface.c:1059 UCX  ERROR ibv_create_cq(cqe=256) failed: Connection timed out
[1741103629.431114] [ohm:829403:0]        ib_iface.c:1059 UCX  ERROR ibv_create_cq(cqe=256) failed: Connection timed out
[1741103629.465624] [ohm:829429:0]        ib_iface.c:1059 UCX  ERROR ibv_create_cq(cqe=256) failed: Connection timed out
[1741103629.476352] [ohm:829412:0]        ib_iface.c:1059 UCX  ERROR ibv_create_cq(cqe=256) failed: Connection timed out
[1741103629.495662] [ohm:829424:0]        ib_iface.c:1059 UCX  ERROR ibv_create_cq(cqe=256) failed: Connection timed out
[1741103629.498904] [ohm:829483:0]        ib_iface.c:1059 UCX  ERROR ibv_create_cq(cqe=256) failed: Connection timed out
[1741103629.506480] [ohm:829404:0]        ib_iface.c:1059 UCX  ERROR ibv_create_cq(cqe=256) failed: Connection timed out
[1741103629.507218] [ohm:829419:0]        ib_iface.c:1059 UCX  ERROR ibv_create_cq(cqe=256) failed: Connection timed out
[1741103629.513376] [ohm:829416:0]        ib_iface.c:1059 UCX  ERROR ibv_create_cq(cqe=256) failed: Connection timed out
[1741103629.518556] [ohm:829477:0]        ib_iface.c:1059 UCX  ERROR ibv_create_cq(cqe=256) failed: Connection timed out
[1741103629.555196] [ohm:829439:0]        ib_iface.c:1059 UCX  ERROR ibv_create_cq(cqe=256) failed: Connection timed out
[1741103629.557700] [ohm:829426:0]        ib_iface.c:1059 UCX  ERROR ibv_create_cq(cqe=256) failed: Connection timed out
[1741103629.569401] [ohm:829417:0]        ib_iface.c:1059 UCX  ERROR ibv_create_cq(cqe=256) failed: Connection timed out
[1741103629.576981] [ohm:829433:0]        ib_iface.c:1059 UCX  ERROR ibv_create_cq(cqe=256) failed: Connection timed out
[1741103629.577237] [ohm:829430:0]        ib_iface.c:1059 UCX  ERROR ibv_create_cq(cqe=256) failed: Connection timed out
[1741103629.583117] [ohm:829415:0]        ib_iface.c:1059 UCX  ERROR ibv_create_cq(cqe=256) failed: Connection timed out
[1741103629.584028] [ohm:829413:0]        ib_iface.c:1059 UCX  ERROR ibv_create_cq(cqe=256) failed: Connection timed out
[1741103629.584282] [ohm:829421:0]        ib_iface.c:1059 UCX  ERROR ibv_create_cq(cqe=256) failed: Connection timed out
[1741103629.600419] [ohm:829494:0]        ib_iface.c:1059 UCX  ERROR ibv_create_cq(cqe=256) failed: Connection timed out
[1741103629.602061] [ohm:829488:0]        ib_iface.c:1059 UCX  ERROR ibv_create_cq(cqe=256) failed: Connection timed out
[1741103629.604762] [ohm:829432:0]        ib_iface.c:1059 UCX  ERROR ibv_create_cq(cqe=256) failed: Connection timed out
[1741103629.611439] [ohm:829464:0]        ib_iface.c:1059 UCX  ERROR ibv_create_cq(cqe=256) failed: Connection timed out
[1741103629.615757] [ohm:829516:0]        ib_iface.c:1059 UCX  ERROR ibv_create_cq(cqe=256) failed: Connection timed out
[1741103629.617102] [ohm:829521:0]        ib_iface.c:1059 UCX  ERROR ibv_create_cq(cqe=256) failed: Connection timed out
[1741103629.650922] [ohm:829402:0]        ib_iface.c:1059 UCX  ERROR ibv_create_cq(cqe=256) failed: Connection timed out
[1741103629.656725] [ohm:829518:0]        ib_iface.c:1059 UCX  ERROR ibv_create_cq(cqe=256) failed: Connection timed out
[1741103629.669413] [ohm:829508:0]        ib_iface.c:1059 UCX  ERROR ibv_create_cq(cqe=256) failed: Connection timed out
[1741103629.669858] [ohm:829526:0]        ib_iface.c:1059 UCX  ERROR ibv_create_cq(cqe=256) failed: Connection timed out
[1741103629.673866] [ohm:829406:0]        ib_iface.c:1059 UCX  ERROR ibv_create_cq(cqe=256) failed: Connection timed out
[1741103629.676630] [ohm:829541:0]        ib_iface.c:1059 UCX  ERROR ibv_create_cq(cqe=256) failed: Connection timed out
[1741103629.677854] [ohm:829511:0]        ib_iface.c:1059 UCX  ERROR ibv_create_cq(cqe=256) failed: Connection timed out
[1741103629.697560] [ohm:829425:0]        ib_iface.c:1059 UCX  ERROR ibv_create_cq(cqe=256) failed: Connection timed out
[1741103629.700805] [ohm:829405:0]        ib_iface.c:1059 UCX  ERROR ibv_create_cq(cqe=256) failed: Connection timed out
[1741103629.704150] [ohm:829423:0]        ib_iface.c:1059 UCX  ERROR ibv_create_cq(cqe=256) failed: Connection timed out
[1741103629.706139] [ohm:829487:0]        ib_iface.c:1059 UCX  ERROR ibv_create_cq(cqe=256) failed: Connection timed out
[1741103629.707037] [ohm:829534:0]        ib_iface.c:1059 UCX  ERROR ibv_create_cq(cqe=256) failed: Connection timed out
[1741103629.708378] [ohm:829401:0]        ib_iface.c:1059 UCX  ERROR ibv_create_cq(cqe=256) failed: Connection timed out
[1741103629.712059] [ohm:829505:0]        ib_iface.c:1059 UCX  ERROR ibv_create_cq(cqe=256) failed: Connection timed out
[1741103629.725116] [ohm:829543:0]        ib_iface.c:1059 UCX  ERROR ibv_create_cq(cqe=256) failed: Connection timed out
[1741103629.729090] [ohm:829537:0]        ib_iface.c:1059 UCX  ERROR ibv_create_cq(cqe=256) failed: Connection timed out
[1741103629.729951] [ohm:829422:0]        ib_iface.c:1059 UCX  ERROR ibv_create_cq(cqe=256) failed: Connection timed out
[1741103629.731639] [ohm:829428:0]        ib_iface.c:1059 UCX  ERROR ibv_create_cq(cqe=256) failed: Connection timed out
[1741103629.731637] [ohm:829460:0]        ib_iface.c:1059 UCX  ERROR ibv_create_cq(cqe=256) failed: Connection timed out
[1741103629.731753] [ohm:829447:0]        ib_iface.c:1059 UCX  ERROR ibv_create_cq(cqe=256) failed: Connection timed out
[1741103629.735886] [ohm:829501:0]        ib_iface.c:1059 UCX  ERROR ibv_create_cq(cqe=256) failed: Connection timed out
[1741103629.741057] [ohm:829492:0]        ib_iface.c:1059 UCX  ERROR ibv_create_cq(cqe=256) failed: Connection timed out
[1741103629.741535] [ohm:829497:0]        ib_iface.c:1059 UCX  ERROR ibv_create_cq(cqe=256) failed: Connection timed out
[1741103629.743365] [ohm:829471:0]        ib_iface.c:1059 UCX  ERROR ibv_create_cq(cqe=256) failed: Connection timed out
[1741103629.745490] [ohm:829532:0]        ib_iface.c:1059 UCX  ERROR ibv_create_cq(cqe=256) failed: Connection timed out
[1741103629.747074] [ohm:829522:0]        ib_iface.c:1059 UCX  ERROR ibv_create_cq(cqe=256) failed: Connection timed out
[1741103629.747644] [ohm:829458:0]        ib_iface.c:1059 UCX  ERROR ibv_create_cq(cqe=256) failed: Connection timed out
[1741103629.748810] [ohm:829451:0]        ib_iface.c:1059 UCX  ERROR ibv_create_cq(cqe=256) failed: Connection timed out
[1741103629.753275] [ohm:829474:0]        ib_iface.c:1059 UCX  ERROR ibv_create_cq(cqe=256) failed: Connection timed out
[1741103629.753945] [ohm:829529:0]        ib_iface.c:1059 UCX  ERROR ibv_create_cq(cqe=256) failed: Connection timed out
[1741103629.754636] [ohm:829441:0]        ib_iface.c:1059 UCX  ERROR ibv_create_cq(cqe=256) failed: Connection timed out
[1741103629.754702] [ohm:829427:0]        ib_iface.c:1059 UCX  ERROR ibv_create_cq(cqe=256) failed: Connection timed out
[1741103629.755317] [ohm:829414:0]        ib_iface.c:1059 UCX  ERROR ibv_create_cq(cqe=256) failed: Connection timed out
[1741103629.756197] [ohm:829420:0]        ib_iface.c:1059 UCX  ERROR ibv_create_cq(cqe=256) failed: Connection timed out
[1741103629.756919] [ohm:829452:0]        ib_iface.c:1059 UCX  ERROR ibv_create_cq(cqe=256) failed: Connection timed out


           ************************************************************
           *        Program running with 64 parallel MPI-processes    *
           *              working on a common directory               *
           ************************************************************
-------------------------------------------------------------------------------
                                 ORCA GUESS
                   Start orbitals & Density for SCF / CASSCF
-------------------------------------------------------------------------------

------------
SCF SETTINGS
------------
Hamiltonian:
 Density Functional     Method          .... DFT(GTOs)
  Functional kind                       .... Exchange-Correlation
  Functional name                       .... wB97M-V exchange-correlation functional
  Functional family                     .... Hybrid MGGA
  Functional refs                              
    [ 0] N. Mardirossian and M. Head-Gordon.,  J. Chem. Phys. 144, 214110 (2016), doi: 10.1063/1.4952647
  Fraction of HF Exchange (short range) .... 0.1500
  Fraction of HF Exchange (long range)  .... 1.0000
  Range separation parameter mu         .... 0.3000
  Functional external parameters        .... 17
    Parameter  0 _cx00      =  8.500000e-01 : u^00 coefficient for exchange
    Parameter  1 _cx01      =  1.007000e+00 : u^01 coefficient for exchange
    Parameter  2 _cx10      =  2.590000e-01 : u^10 coefficient for exchange
    Parameter  3 _css00     =  4.430000e-01 : u^00 coefficient for same-spin correlation
    Parameter  4 _css04     = -1.437000e+00 : u^04 coefficient for same-spin correlation
    Parameter  5 _css10     = -4.535000e+00 : u^10 coefficient for same-spin correlation
    Parameter  6 _css20     = -3.390000e+00 : u^20 coefficient for same-spin correlation
    Parameter  7 _css43     =  4.278000e+00 : u^43 coefficient for same-spin correlation
    Parameter  8 _cos00     =  1.000000e+00 : u^00 coefficient for opposite-spin correlation
    Parameter  9 _cos10     =  1.358000e+00 : u^10 coefficient for opposite-spin correlation
    Parameter 10 _cos20     =  2.924000e+00 : u^20 coefficient for opposite-spin correlation
    Parameter 11 _cos21     = -8.812000e+00 : u^21 coefficient for opposite-spin correlation
    Parameter 12 _cos60     = -1.390000e+00 : u^60 coefficient for opposite-spin correlation
    Parameter 13 _cos61     =  9.142000e+00 : u^61 coefficient for opposite-spin correlation
    Parameter 14 _alpha     =  1.000000e+00 : fraction of HF exchange
    Parameter 15 _beta      = -8.500000e-01 : fraction of short-range exchange
    Parameter 16 _omega     =  3.000000e-01 : range-separation constant
 Long-range corrected/Screened/Range-Separated Hybrid DFT is turned on
   Amount of maximum screened exact exchange              ....  0.850000
   Range separation parameter mu (erf(mu*r12)/r12)        ....  0.300000
 RI-approximation to the Coulomb term is turned on
   Number of AuxJ basis functions       .... 1014
   RIJ-COSX (HFX calculated with COS-X)).... on


General Settings:
 Integral files         IntName         .... orca
 Hartree-Fock type      HFTyp           .... UHF
 Total Charge           Charge          ....    0
 Multiplicity           Mult            ....    3
 Number of Electrons    NEL             ....  132
 Basis Dimension        Dim             ....  882
 Nuclear Repulsion      ENuc            ....   1434.7660644957 Eh

Convergence Acceleration:
 AO-DIIS                CNVDIIS         .... on
   Start iteration      DIISMaxIt       ....    12
   Startup error        DIISStart       ....  0.200000
   # of expansion vecs  DIISMaxEq       ....     5
   Bias factor          DIISBfac        ....   1.050
   Max. coefficient     DIISMaxC        ....  10.000
 MO-DIIS                CNVKDIIS        .... off
 Trust-Rad. Augm. Hess. CNVTRAH         .... auto
   Auto Start mean grad. ratio tolernc. ....  1.125000
   Auto Start start iteration           ....    50
   Auto Start num. interpolation iter.  ....    10
   Max. Number of Micro iterations      ....    24
   Max. Number of Macro iterations      .... Maxiter - #DIIS iter
   Number of Davidson start vectors     ....     2
   Converg. threshold    (grad. norm)   ....   1.000e-05
   Grad. Scal. Fac. for Micro threshold ....   0.100
   Minimum threshold for Micro iter.    ....   1.000e-02
   NR start threshold (gradient norm)   ....   1.000e-04
   Initial trust radius                 ....   0.400
   Minimum AH scaling param. (alpha)    ....   1.000
   Maximum AH scaling param. (alpha)    .... 1000.000
   Quad. conv. algorithm                .... NR
   White noise on init. David. guess    .... on
   Maximum white noise                  ....   0.010
   Pseudo random numbers                .... off
   Inactive MOs                         .... canonical
   Orbital update algorithm             .... Taylor
   Preconditioner                       .... Diag
   Full preconditioner red. dimension   ....   250
 SOSCF                  CNVSOSCF        .... on
   Start iteration      SOSCFMaxIt      ....   150
   Startup grad/error   SOSCFStart      ....  0.003300
   Hessian update       SOSCFHessUp     .... L-BFGS
 Level Shifting         CNVShift        .... on
   Level shift para.    LevelShift      ....    0.2500
   Turn off err/grad.   ShiftErr        ....    0.0010
 Zerner damping         CNVZerner       .... off
 Static damping         CNVDamp         .... on
   Fraction old density DampFac         ....    0.7000
   Max. Damping (<1)    DampMax         ....    0.9800
   Min. Damping (>=0)   DampMin         ....    0.0000
   Turn off err/grad.   DampErr         ....    0.1000

SCF Procedure:
 Maximum # iterations   MaxIter         ....   125
 SCF integral mode      SCFMode         .... Direct
   Integral package                     .... SHARK and LIBINT hybrid scheme
 Reset frequency        DirectResetFreq ....    20
 Integral Threshold     Thresh          ....  1.000e-12 Eh
 Primitive CutOff       TCut            ....  1.000e-13 Eh

Convergence Tolerance:
 Convergence Check Mode ConvCheckMode   .... Total+1el-Energy
 Convergence forced     ConvForced      .... 1
 Energy Change          TolE            ....  1.000e-08 Eh
 1-El. energy change                    ....  1.000e-05 Eh
 Orbital Gradient       TolG            ....  1.000e-05
 Orbital Rotation angle TolX            ....  1.000e-05
 DIIS Error             TolErr          ....  5.000e-07

------------------------------
INITIAL GUESS: MODEL POTENTIAL
------------------------------
Loading Hartree-Fock densities                     ... done
Calculating cut-offs                               ... done
Initializing the effective Hamiltonian             ... done
Setting up the integral package (SHARK)            ... done
Starting the Coulomb interaction                   ... done (   0.1 sec)
Making the grid                                    ... done (   0.2 sec)
Mapping shells                                     ... done
Starting the XC term evaluation                    ... done (   0.1 sec)
  promolecular density results
     # of electrons  =    131.992005417
     EX              =   -113.545966959
     EC              =     -4.496507737
     EX+EC           =   -118.042474696
Transforming the Hamiltonian                       ... done (   0.1 sec)
Diagonalizing the Hamiltonian                      ... done (   0.1 sec)
Back transforming the eigenvectors                 ... done (   0.1 sec)
Now organizing SCF variables                       ... done
                      ------------------
                      INITIAL GUESS DONE (   1.1 sec)
                      ------------------
             **** ENERGY FILE WAS UPDATED (orca.en.tmp) ****
Finished Guess after   3.7 sec
Maximum memory used throughout the entire GUESS-calculation: 72.3 MB
[1741103633.832108] [ohm:829737:0]        ib_iface.c:1059 UCX  ERROR ibv_create_cq(cqe=256) failed: Connection timed out
[1741103633.890275] [ohm:829736:0]        ib_iface.c:1059 UCX  ERROR ibv_create_cq(cqe=256) failed: Connection timed out
[1741103633.890959] [ohm:829735:0]        ib_iface.c:1059 UCX  ERROR ibv_create_cq(cqe=256) failed: Connection timed out
[1741103633.891188] [ohm:829752:0]        ib_iface.c:1059 UCX  ERROR ibv_create_cq(cqe=256) failed: Connection timed out
[1741103633.892031] [ohm:829738:0]        ib_iface.c:1059 UCX  ERROR ibv_create_cq(cqe=256) failed: Connection timed out
[1741103633.893110] [ohm:829740:0]        ib_iface.c:1059 UCX  ERROR ibv_create_cq(cqe=256) failed: Connection timed out
[1741103633.895268] [ohm:829742:0]        ib_iface.c:1059 UCX  ERROR ibv_create_cq(cqe=256) failed: Connection timed out
[1741103633.896910] [ohm:829743:0]        ib_iface.c:1059 UCX  ERROR ibv_create_cq(cqe=256) failed: Connection timed out
[1741103633.898222] [ohm:829741:0]        ib_iface.c:1059 UCX  ERROR ibv_create_cq(cqe=256) failed: Connection timed out
[1741103633.916466] [ohm:829744:0]        ib_iface.c:1059 UCX  ERROR ibv_create_cq(cqe=256) failed: Connection timed out
[1741103633.925878] [ohm:829757:0]        ib_iface.c:1059 UCX  ERROR ibv_create_cq(cqe=256) failed: Connection timed out
[1741103633.931853] [ohm:829746:0]        ib_iface.c:1059 UCX  ERROR ibv_create_cq(cqe=256) failed: Connection timed out
[1741103633.950187] [ohm:829772:0]        ib_iface.c:1059 UCX  ERROR ibv_create_cq(cqe=256) failed: Connection timed out
[1741103633.982538] [ohm:829749:0]        ib_iface.c:1059 UCX  ERROR ibv_create_cq(cqe=256) failed: Connection timed out
[1741103633.995816] [ohm:829754:0]        ib_iface.c:1059 UCX  ERROR ibv_create_cq(cqe=256) failed: Connection timed out
[1741103634.018069] [ohm:829811:0]        ib_iface.c:1059 UCX  ERROR ibv_create_cq(cqe=256) failed: Connection timed out
[1741103634.040472] [ohm:829849:0]        ib_iface.c:1059 UCX  ERROR ibv_create_cq(cqe=256) failed: Connection timed out
[1741103634.053067] [ohm:829758:0]        ib_iface.c:1059 UCX  ERROR ibv_create_cq(cqe=256) failed: Connection timed out
[1741103634.055932] [ohm:829799:0]        ib_iface.c:1059 UCX  ERROR ibv_create_cq(cqe=256) failed: Connection timed out
[1741103634.057411] [ohm:829783:0]        ib_iface.c:1059 UCX  ERROR ibv_create_cq(cqe=256) failed: Connection timed out
[1741103634.073938] [ohm:829842:0]        ib_iface.c:1059 UCX  ERROR ibv_create_cq(cqe=256) failed: Connection timed out
[1741103634.080190] [ohm:829831:0]        ib_iface.c:1059 UCX  ERROR ibv_create_cq(cqe=256) failed: Connection timed out
[1741103634.081538] [ohm:829771:0]        ib_iface.c:1059 UCX  ERROR ibv_create_cq(cqe=256) failed: Connection timed out
[1741103634.084094] [ohm:829747:0]        ib_iface.c:1059 UCX  ERROR ibv_create_cq(cqe=256) failed: Connection timed out
[1741103634.093372] [ohm:829873:0]        ib_iface.c:1059 UCX  ERROR ibv_create_cq(cqe=256) failed: Connection timed out
[1741103634.097776] [ohm:829835:0]        ib_iface.c:1059 UCX  ERROR ibv_create_cq(cqe=256) failed: Connection timed out
[1741103634.103237] [ohm:829756:0]        ib_iface.c:1059 UCX  ERROR ibv_create_cq(cqe=256) failed: Connection timed out
[1741103634.103604] [ohm:829775:0]        ib_iface.c:1059 UCX  ERROR ibv_create_cq(cqe=256) failed: Connection timed out
[1741103634.104516] [ohm:829778:0]        ib_iface.c:1059 UCX  ERROR ibv_create_cq(cqe=256) failed: Connection timed out
[1741103634.106365] [ohm:829753:0]        ib_iface.c:1059 UCX  ERROR ibv_create_cq(cqe=256) failed: Connection timed out
[1741103634.114122] [ohm:829879:0]        ib_iface.c:1059 UCX  ERROR ibv_create_cq(cqe=256) failed: Connection timed out
[1741103634.124522] [ohm:829750:0]        ib_iface.c:1059 UCX  ERROR ibv_create_cq(cqe=256) failed: Connection timed out
[1741103634.129745] [ohm:829813:0]        ib_iface.c:1059 UCX  ERROR ibv_create_cq(cqe=256) failed: Connection timed out
[1741103634.132460] [ohm:829739:0]        ib_iface.c:1059 UCX  ERROR ibv_create_cq(cqe=256) failed: Connection timed out
[1741103634.143592] [ohm:829807:0]        ib_iface.c:1059 UCX  ERROR ibv_create_cq(cqe=256) failed: Connection timed out
[1741103634.153941] [ohm:829881:0]        ib_iface.c:1059 UCX  ERROR ibv_create_cq(cqe=256) failed: Connection timed out
[1741103634.155454] [ohm:829885:0]        ib_iface.c:1059 UCX  ERROR ibv_create_cq(cqe=256) failed: Connection timed out
[1741103634.160458] [ohm:829755:0]        ib_iface.c:1059 UCX  ERROR ibv_create_cq(cqe=256) failed: Connection timed out
[1741103634.162030] [ohm:829751:0]        ib_iface.c:1059 UCX  ERROR ibv_create_cq(cqe=256) failed: Connection timed out
[1741103634.164431] [ohm:829748:0]        ib_iface.c:1059 UCX  ERROR ibv_create_cq(cqe=256) failed: Connection timed out
[1741103634.167164] [ohm:829845:0]        ib_iface.c:1059 UCX  ERROR ibv_create_cq(cqe=256) failed: Connection timed out
[1741103634.168129] [ohm:829776:0]        ib_iface.c:1059 UCX  ERROR ibv_create_cq(cqe=256) failed: Connection timed out
[1741103634.168162] [ohm:829774:0]        ib_iface.c:1059 UCX  ERROR ibv_create_cq(cqe=256) failed: Connection timed out
[1741103634.170734] [ohm:829805:0]        ib_iface.c:1059 UCX  ERROR ibv_create_cq(cqe=256) failed: Connection timed out
[1741103634.173488] [ohm:829802:0]        ib_iface.c:1059 UCX  ERROR ibv_create_cq(cqe=256) failed: Connection timed out
[1741103634.180655] [ohm:829794:0]        ib_iface.c:1059 UCX  ERROR ibv_create_cq(cqe=256) failed: Connection timed out
[1741103634.190677] [ohm:829773:0]        ib_iface.c:1059 UCX  ERROR ibv_create_cq(cqe=256) failed: Connection timed out
[1741103634.191339] [ohm:829840:0]        ib_iface.c:1059 UCX  ERROR ibv_create_cq(cqe=256) failed: Connection timed out
[1741103634.193662] [ohm:829875:0]        ib_iface.c:1059 UCX  ERROR ibv_create_cq(cqe=256) failed: Connection timed out
[1741103634.196174] [ohm:829792:0]        ib_iface.c:1059 UCX  ERROR ibv_create_cq(cqe=256) failed: Connection timed out
[1741103634.201762] [ohm:829824:0]        ib_iface.c:1059 UCX  ERROR ibv_create_cq(cqe=256) failed: Connection timed out
[1741103634.207120] [ohm:829853:0]        ib_iface.c:1059 UCX  ERROR ibv_create_cq(cqe=256) failed: Connection timed out
[1741103634.207756] [ohm:829868:0]        ib_iface.c:1059 UCX  ERROR ibv_create_cq(cqe=256) failed: Connection timed out
[1741103634.208362] [ohm:829888:0]        ib_iface.c:1059 UCX  ERROR ibv_create_cq(cqe=256) failed: Connection timed out
[1741103634.208638] [ohm:829867:0]        ib_iface.c:1059 UCX  ERROR ibv_create_cq(cqe=256) failed: Connection timed out
[1741103634.209727] [ohm:829745:0]        ib_iface.c:1059 UCX  ERROR ibv_create_cq(cqe=256) failed: Connection timed out
[1741103634.210611] [ohm:829821:0]        ib_iface.c:1059 UCX  ERROR ibv_create_cq(cqe=256) failed: Connection timed out
[1741103634.213096] [ohm:829779:0]        ib_iface.c:1059 UCX  ERROR ibv_create_cq(cqe=256) failed: Connection timed out
[1741103634.213259] [ohm:829816:0]        ib_iface.c:1059 UCX  ERROR ibv_create_cq(cqe=256) failed: Connection timed out
[1741103634.213474] [ohm:829785:0]        ib_iface.c:1059 UCX  ERROR ibv_create_cq(cqe=256) failed: Connection timed out
[1741103634.214114] [ohm:829861:0]        ib_iface.c:1059 UCX  ERROR ibv_create_cq(cqe=256) failed: Connection timed out
[1741103634.214197] [ohm:829859:0]        ib_iface.c:1059 UCX  ERROR ibv_create_cq(cqe=256) failed: Connection timed out
[1741103634.215665] [ohm:829848:0]        ib_iface.c:1059 UCX  ERROR ibv_create_cq(cqe=256) failed: Connection timed out
[1741103634.218297] [ohm:829839:0]        ib_iface.c:1059 UCX  ERROR ibv_create_cq(cqe=256) failed: Connection timed out


           ************************************************************
           *        Program running with 64 parallel MPI-processes    *
           *              working on a common directory               *
           ************************************************************

-------------------------------------------------------------------------------------------
                                      ORCA LEAN-SCF
                              memory conserving SCF solver
-------------------------------------------------------------------------------------------

----------------------------------------D-I-I-S--------------------------------------------
Iteration    Energy (Eh)           Delta-E    RMSDP     MaxDP     DIISErr   Damp  Time(sec)
-------------------------------------------------------------------------------------------
               ***  Starting incremental Fock matrix formation  ***
    1    -908.1100842055873272     0.00e+00  1.57e-03  2.16e-01  1.53e-01  0.700   8.1
    2    -908.3793063102582437    -2.69e-01  1.27e-03  1.45e-01  7.04e-02  0.700   6.8
                               ***Turning on AO-DIIS***
    3    -908.4975595165294635    -1.18e-01  9.18e-04  1.07e-01  2.90e-02  0.700   5.7
    4    -908.5703461989380685    -7.28e-02  2.19e-03  2.37e-01  1.78e-02  0.000   5.7
    5    -908.7341340253976796    -1.64e-01  2.75e-04  6.99e-02  5.16e-03  0.000   5.9
                              *** Initializing SOSCF ***
---------------------------------------S-O-S-C-F--------------------------------------
Iteration    Energy (Eh)           Delta-E    RMSDP     MaxDP     MaxGrad    Time(sec)
--------------------------------------------------------------------------------------
    6    -908.7354903562620621    -1.36e-03  1.41e-04  4.32e-02  2.55e-03     6.6
               *** Restarting incremental Fock matrix formation ***
    7    -908.7361109089363254    -6.21e-04  2.45e-04  2.42e-02  4.90e-03     7.7
    8    -908.7365285147468512    -4.18e-04  2.71e-04  6.67e-02  2.60e-03     6.9
    9    -908.7366803861202698    -1.52e-04  1.41e-04  1.57e-02  1.22e-03     7.0
   10    -908.7367607328890244    -8.03e-05  3.32e-05  1.07e-02  5.98e-04     6.7
   11    -908.7367722217329629    -1.15e-05  1.01e-05  1.40e-03  1.65e-04     6.6
   12    -908.7367749942461614    -2.77e-06  8.21e-06  1.79e-03  1.63e-04     6.4
   13    -908.7367766316913276    -1.64e-06  4.73e-06  5.10e-04  6.64e-05     6.3
   14    -908.7367768561532557    -2.24e-07  1.94e-06  4.16e-04  2.27e-05     6.2
   15    -908.7367769026452606    -4.65e-08  1.41e-06  2.90e-04  1.58e-05     5.9
   16    -908.7367769210734423    -1.84e-08  1.20e-06  2.16e-04  3.70e-06     6.0
   17    -908.7367768860365231     3.50e-08  8.47e-07  1.76e-04  2.31e-06     5.8
                  *** Gradient check signals convergence ***

               *****************************************************
               *                     SUCCESS                       *
               *           SCF CONVERGED AFTER  17 CYCLES          *
               *****************************************************

Recomputing exchange energy using gridx3       ... done (    7.835 sec)
Old exchange energy                            :    -35.031374082 Eh
New exchange energy                            :    -35.031376157 Eh
Exchange energy change after final integration :     -0.000002075 Eh
Total energy after final integration           :   -908.736778961 Eh
             **** ENERGY FILE WAS UPDATED (orca.en.tmp) ****

----------------
TOTAL SCF ENERGY
----------------

Total Energy       :       -908.73677896075912 Eh          -24727.98490 eV

Components:
Nuclear Repulsion  :       1434.76606449574479 Eh           39041.96947 eV
Electronic Energy  :      -2343.50284138178131 Eh          -63769.95432 eV
One Electron Energy:      -4086.39869803274814 Eh         -111196.56170 eV
Two Electron Energy:       1742.89585665096683 Eh           47426.60738 eV

Virial components:
Potential Energy   :      -1814.37568536546269 Eh          -49371.67241 eV
Kinetic Energy     :        905.63890640470345 Eh           24643.68750 eV
Virial Ratio       :          2.00342064870905

DFT components:
N(Alpha)           :       66.999965536334 electrons
N(Beta)            :       64.999975643046 electrons
N(Total)           :      131.999941179380 electrons
E(XC)              :      -86.238937514361 Eh       

---------------
SCF CONVERGENCE
---------------

  Last Energy change         ...   -3.5037e-08  Tolerance :   1.0000e-08
  Last MAX-Density change    ...    1.7577e-04  Tolerance :   1.0000e-07
  Last RMS-Density change    ...    8.4671e-07  Tolerance :   5.0000e-09
  Last DIIS Error            ...    2.5542e-03  Tolerance :   5.0000e-07
  Last Orbital Gradient      ...    2.3106e-06  Tolerance :   1.0000e-05
  Last Orbital Rotation      ...    1.6835e-05  Tolerance :   1.0000e-05


----------------------
UHF SPIN CONTAMINATION
----------------------

Warning: in a DFT calculation there is little theoretical justification to 
         calculate <S**2> as in Hartree-Fock theory. We will do it anyways
         but you should keep in mind that the values have only limited relevance

Expectation value of <S**2>     :     2.014256
Ideal value S*(S+1) for S=1.0   :     2.000000
Deviation                       :     0.014256

----------------
ORBITAL ENERGIES
----------------
                 SPIN UP ORBITALS
  NO   OCC          E(Eh)            E(eV) 
   0   1.0000     -19.346015      -526.4318 
   1   1.0000     -19.327447      -525.9266 
   2   1.0000     -19.323864      -525.8291 
   3   1.0000     -19.310916      -525.4767 
   4   1.0000     -14.574872      -396.6024 
   5   1.0000     -14.570742      -396.4901 
   6   1.0000     -14.566993      -396.3880 
   7   1.0000     -14.559208      -396.1762 
   8   1.0000     -10.510155      -285.9959 
   9   1.0000     -10.502065      -285.7757 
  10   1.0000     -10.494728      -285.5761 
  11   1.0000     -10.481521      -285.2167 
  12   1.0000     -10.448161      -284.3089 
  13   1.0000     -10.446035      -284.2511 
  14   1.0000     -10.424453      -283.6638 
  15   1.0000     -10.422575      -283.6127 
  16   1.0000     -10.383286      -282.5436 
  17   1.0000     -10.368023      -282.1282 
  18   1.0000      -1.234172       -33.5835 
  19   1.0000      -1.217829       -33.1388 
  20   1.0000      -1.210839       -32.9486 
  21   1.0000      -1.173347       -31.9284 
  22   1.0000      -1.125828       -30.6353 
  23   1.0000      -1.105457       -30.0810 
  24   1.0000      -1.076197       -29.2848 
  25   1.0000      -1.061174       -28.8760 
  26   1.0000      -0.984363       -26.7859 
  27   1.0000      -0.944663       -25.7056 
  28   1.0000      -0.889235       -24.1973 
  29   1.0000      -0.847116       -23.0512 
  30   1.0000      -0.824866       -22.4458 
  31   1.0000      -0.804936       -21.9034 
  32   1.0000      -0.797460       -21.7000 
  33   1.0000      -0.786080       -21.3903 
  34   1.0000      -0.707134       -19.2421 
  35   1.0000      -0.694703       -18.9038 
  36   1.0000      -0.692755       -18.8508 
  37   1.0000      -0.680662       -18.5218 
  38   1.0000      -0.655413       -17.8347 
  39   1.0000      -0.644021       -17.5247 
  40   1.0000      -0.617419       -16.8008 
  41   1.0000      -0.610001       -16.5990 
  42   1.0000      -0.603656       -16.4263 
  43   1.0000      -0.587387       -15.9836 
  44   1.0000      -0.575110       -15.6495 
  45   1.0000      -0.568911       -15.4808 
  46   1.0000      -0.562183       -15.2978 
  47   1.0000      -0.561526       -15.2799 
  48   1.0000      -0.558121       -15.1872 
  49   1.0000      -0.557175       -15.1615 
  50   1.0000      -0.549132       -14.9427 
  51   1.0000      -0.534002       -14.5309 
  52   1.0000      -0.533112       -14.5067 
  53   1.0000      -0.525118       -14.2892 
  54   1.0000      -0.508423       -13.8349 
  55   1.0000      -0.502077       -13.6622 
  56   1.0000      -0.490886       -13.3577 
  57   1.0000      -0.430361       -11.7107 
  58   1.0000      -0.418958       -11.4004 
  59   1.0000      -0.409781       -11.1507 
  60   1.0000      -0.406888       -11.0720 
  61   1.0000      -0.400997       -10.9117 
  62   1.0000      -0.397741       -10.8231 
  63   1.0000      -0.388491       -10.5714 
  64   1.0000      -0.382389       -10.4053 
  65   1.0000      -0.346444        -9.4272 
  66   1.0000      -0.323570        -8.8048 
  67   0.0000       0.005643         0.1536 
  68   0.0000       0.026743         0.7277 
  69   0.0000       0.032100         0.8735 
  70   0.0000       0.035276         0.9599 
  71   0.0000       0.052587         1.4310 
  72   0.0000       0.054437         1.4813 
  73   0.0000       0.059372         1.6156 
  74   0.0000       0.061088         1.6623 
  75   0.0000       0.065550         1.7837 
  76   0.0000       0.068649         1.8680 
  77   0.0000       0.070202         1.9103 

                 SPIN DOWN ORBITALS
  NO   OCC          E(Eh)            E(eV) 
   0   1.0000     -19.342962      -526.3488 
   1   1.0000     -19.323730      -525.8254 
   2   1.0000     -19.322517      -525.7924 
   3   1.0000     -19.310852      -525.4750 
   4   1.0000     -14.574406      -396.5897 
   5   1.0000     -14.570261      -396.4770 
   6   1.0000     -14.566649      -396.3787 
   7   1.0000     -14.559172      -396.1752 
   8   1.0000     -10.510177      -285.9964 
   9   1.0000     -10.502116      -285.7771 
  10   1.0000     -10.495639      -285.6008 
  11   1.0000     -10.482715      -285.2492 
  12   1.0000     -10.447277      -284.2849 
  13   1.0000     -10.445654      -284.2407 
  14   1.0000     -10.412600      -283.3412 
  15   1.0000     -10.411440      -283.3097 
  16   1.0000     -10.384039      -282.5641 
  17   1.0000     -10.368498      -282.1412 
  18   1.0000      -1.231639       -33.5146 
  19   1.0000      -1.217008       -33.1165 
  20   1.0000      -1.208621       -32.8882 
  21   1.0000      -1.166993       -31.7555 
  22   1.0000      -1.123314       -30.5669 
  23   1.0000      -1.103592       -30.0303 
  24   1.0000      -1.074534       -29.2396 
  25   1.0000      -1.059400       -28.8277 
  26   1.0000      -0.971314       -26.4308 
  27   1.0000      -0.926995       -25.2248 
  28   1.0000      -0.883089       -24.0301 
  29   1.0000      -0.843260       -22.9463 
  30   1.0000      -0.816731       -22.2244 
  31   1.0000      -0.801048       -21.7976 
  32   1.0000      -0.794114       -21.6089 
  33   1.0000      -0.784312       -21.3422 
  34   1.0000      -0.702202       -19.1079 
  35   1.0000      -0.688300       -18.7296 
  36   1.0000      -0.686037       -18.6680 
  37   1.0000      -0.674921       -18.3655 
  38   1.0000      -0.644807       -17.5461 
  39   1.0000      -0.637983       -17.3604 
  40   1.0000      -0.614503       -16.7215 
  41   1.0000      -0.604390       -16.4463 
  42   1.0000      -0.599330       -16.3086 
  43   1.0000      -0.581121       -15.8131 
  44   1.0000      -0.569206       -15.4889 
  45   1.0000      -0.560705       -15.2576 
  46   1.0000      -0.557038       -15.1578 
  47   1.0000      -0.555342       -15.1116 
  48   1.0000      -0.552232       -15.0270 
  49   1.0000      -0.550849       -14.9894 
  50   1.0000      -0.535450       -14.5703 
  51   1.0000      -0.526636       -14.3305 
  52   1.0000      -0.523144       -14.2355 
  53   1.0000      -0.519084       -14.1250 
  54   1.0000      -0.501509       -13.6467 
  55   1.0000      -0.494367       -13.4524 
  56   1.0000      -0.487855       -13.2752 
  57   1.0000      -0.425094       -11.5674 
  58   1.0000      -0.411292       -11.1918 
  59   1.0000      -0.404315       -11.0020 
  60   1.0000      -0.401216       -10.9177 
  61   1.0000      -0.397612       -10.8196 
  62   1.0000      -0.385296       -10.4844 
  63   1.0000      -0.379502       -10.3268 
  64   1.0000      -0.372995       -10.1497 
  65   0.0000      -0.061240        -1.6664 
  66   0.0000      -0.051788        -1.4092 
  67   0.0000       0.005196         0.1414 
  68   0.0000       0.026437         0.7194 
  69   0.0000       0.031884         0.8676 
  70   0.0000       0.035123         0.9557 
  71   0.0000       0.052726         1.4347 
  72   0.0000       0.055072         1.4986 
  73   0.0000       0.059219         1.6114 
  74   0.0000       0.062357         1.6968 
  75   0.0000       0.065222         1.7748 
*Only the first 10 virtual orbitals were printed.

                    ********************************
                    * MULLIKEN POPULATION ANALYSIS *
                    ********************************

--------------------------------------------
MULLIKEN ATOMIC CHARGES AND SPIN POPULATIONS
--------------------------------------------
   0 O :   -0.617846    0.111206
   1 O :   -0.697649    0.184336
   2 O :   -0.659164    0.004644
   3 O :   -0.682238    0.002184
   4 N :   -0.187454    0.021157
   5 N :   -0.265266    0.025237
   6 N :    0.011239    0.026222
   7 N :   -0.048396    0.020474
   8 C :   -0.292379    0.509679
   9 C :   -0.104876    0.435094
  10 C :    0.370921    0.141106
  11 C :    0.720153    0.157631
  12 C :   -1.497183    0.012755
  13 C :   -1.464725    0.028998
  14 C :    0.556144    0.129808
  15 C :    0.413054    0.072115
  16 C :    0.437507   -0.010203
  17 C :    0.417855    0.001621
  18 H :    0.717555    0.000512
  19 H :    0.551983    0.049466
  20 H :    0.270176    0.004944
  21 H :    0.288875    0.015282
  22 H :    0.377070    0.017036
  23 H :    0.394072    0.020896
  24 H :    0.347018    0.003523
  25 H :    0.254640    0.017234
  26 H :   -0.001995    0.001586
  27 H :    0.104082   -0.002621
  28 H :    0.117648   -0.000898
  29 H :    0.169177   -0.001024
Sum of atomic charges         :   -0.0000000
Sum of atomic spin populations:    2.0000000

-----------------------------------------------------
MULLIKEN REDUCED ORBITAL CHARGES AND SPIN POPULATIONS
-----------------------------------------------------
CHARGE
  0 O s       :     4.070214  s :     4.070214
      pz      :     1.570119  p :     4.515818
      px      :     1.315065
      py      :     1.630635
      dz2     :     0.004869  d :     0.029825
      dxz     :     0.007713
      dyz     :     0.003397
      dx2y2   :     0.008743
      dxy     :     0.005104
      f0      :     0.000144  f :     0.001988
      f+1     :     0.000462
      f-1     :     0.000068
      f+2     :     0.000325
      f-2     :     0.000302
      f+3     :     0.000369
      f-3     :     0.000318

  1 O s       :     4.106968  s :     4.106968
      pz      :     1.276823  p :     4.561154
[...]
[1741103931.212601] [ohm:832005:0]        ib_iface.c:1059 UCX  ERROR ibv_create_cq(cqe=256) failed: Connection timed out
[1741103931.213215] [ohm:832022:0]        ib_iface.c:1059 UCX  ERROR ibv_create_cq(cqe=256) failed: Connection timed out
[1741103931.213608] [ohm:832000:0]        ib_iface.c:1059 UCX  ERROR ibv_create_cq(cqe=256) failed: Connection timed out
[1741103931.214905] [ohm:832011:0]        ib_iface.c:1059 UCX  ERROR ibv_create_cq(cqe=256) failed: Connection timed out
[1741103931.215069] [ohm:832039:0]        ib_iface.c:1059 UCX  ERROR ibv_create_cq(cqe=256) failed: Connection timed out
[1741103931.216146] [ohm:832053:0]        ib_iface.c:1059 UCX  ERROR ibv_create_cq(cqe=256) failed: Connection timed out
[1741103931.216171] [ohm:832003:0]        ib_iface.c:1059 UCX  ERROR ibv_create_cq(cqe=256) failed: Connection timed out
[1741103931.216591] [ohm:832010:0]        ib_iface.c:1059 UCX  ERROR ibv_create_cq(cqe=256) failed: Connection timed out
[1741103931.218194] [ohm:832075:0]        ib_iface.c:1059 UCX  ERROR ibv_create_cq(cqe=256) failed: Connection timed out
[1741103931.218488] [ohm:832073:0]        ib_iface.c:1059 UCX  ERROR ibv_create_cq(cqe=256) failed: Connection timed out
[1741103931.218810] [ohm:831998:0]        ib_iface.c:1059 UCX  ERROR ibv_create_cq(cqe=256) failed: Connection timed out


           ************************************************************
           *        Program running with 64 parallel MPI-processes    *
           *              working on a common directory               *
           ************************************************************

------------------------------------------------------------------------------
                              ORCA PROPERTY CALCULATIONS
------------------------------------------------------------------------------

GBWName                                 ... orca.gbw
Number of atoms                         ...     30
Number of basis functions               ...    882
Max core memory                         ...   1024 MB

Electric properties:
Dipole moment                           ... YES
Quadrupole moment                       ...  NO
Static polarizability (Dipole/Dipole)   ...  NO
Static polarizability (Dipole/Quad.)    ...  NO
Static polarizability (Quad./Quad.)     ...  NO
Static polarizability (Velocity)        ...  NO

Atomic electric properties:
Dipole moment                           ...  NO
Quadrupole moment                       ...  NO
Static polarizability                   ...  NO

Choice of electric origin               ... Center of mass
Position of electric origin             ...    -0.014128    -0.082714    -0.044818

General magnetic properties:
Magnetizability                         ...  NO

EPR properties:
g-Tensor (aka g-matrix)                 ...  NO
Zero-Field splitting spin-orbit         ...  NO
Zero-field splitting spin-spin          ...  NO
Hyperfine couplings                     ...  NO (   0 nuclei)
Quadrupole couplings                    ...  NO (   0 nuclei)
Contact density                         ...  NO (   0 nuclei)

NMR properties:
Chemical shifts                         ...  NO (   0 nuclei)
Spin-rotation constants                 ...  NO (   0 nuclei)
Spin-spin couplings                     ...  NO (   0 nuclei,    0 pairs)

Choice of magnetic origin               ... GIAO
Position of magnetic origin             ...     0.000000     0.000000     0.000000

Properties with geometric perturbations:
SCF Hessian                             ...  NO
IR spectrum                             ...  NO
VCD spectrum                            ...  NO
X-ray spectroscopy properties:
SCF XES/XAS/RIXS spectra                ...  NO


-------------
DIPOLE MOMENT
-------------

Method             : SCF
Type of density    : Electron Density
Multiplicity       :   3
Irrep              :   0
Energy             :  -908.7367789607591249 Eh
Relativity type    : 
Basis              : AO
                                X                 Y                 Z
Electronic contribution:     -7.466172681      -8.302853687      -3.285785006
Nuclear contribution   :      8.622259414       9.793461829       5.097256288
                        -----------------------------------------
Total Dipole Moment    :      1.156086734       1.490608142       1.811471282
                        -----------------------------------------
Magnitude (a.u.)       :      2.615315923
Magnitude (Debye)      :      6.647604782



--------------------
Rotational spectrum 
--------------------
 
Rotational constants in cm-1:             0.021257             0.012356             0.011667 
Rotational constants in MHz :           637.279922           370.425347           349.763190 

Dipole components along the rotational axes: 
x,y,z [a.u.] :    -0.828467     1.527315     1.954694 
x,y,z [Debye]:    -2.105796     3.882125     4.968438 

 

-------------
DIPOLE MOMENT
-------------

Method             : TDA/CIS
Type of density    : Electron Density
Level              : Relaxed density
State              :   1
Multiplicity       :   3
Irrep              :   0
Energy             :     0.0000000000000000 Eh
Relativity type    : 
Basis              : AO
                                X                 Y                 Z
Electronic contribution:     -7.339001233      -8.309079165      -3.163397085
Nuclear contribution   :      8.622259414       9.793461829       5.097256288
                        -----------------------------------------
Total Dipole Moment    :      1.283258182       1.484382664       1.933859203
                        -----------------------------------------
Magnitude (a.u.)       :      2.754987272
Magnitude (Debye)      :      7.002621138



--------------------
Rotational spectrum 
--------------------
 
Rotational constants in cm-1:             0.021257             0.012356             0.011667 
Rotational constants in MHz :           637.279922           370.425347           349.763190 

Dipole components along the rotational axes: 
x,y,z [a.u.] :    -0.940778     1.527303     2.090989 
x,y,z [Debye]:    -2.391268     3.882096     5.314872 

 

Dipole moment calculation done in   0.2 sec 

Maximum memory used throughout the entire PROP-calculation: 81.5 MB
[1741103933.650159] [ohm:832364:0]        ib_iface.c:1059 UCX  ERROR ibv_create_cq(cqe=256) failed: Connection timed out
[1741103933.653052] [ohm:832347:0]        ib_iface.c:1059 UCX  ERROR ibv_create_cq(cqe=256) failed: Connection timed out
[1741103933.662786] [ohm:832363:0]        ib_iface.c:1059 UCX  ERROR ibv_create_cq(cqe=256) failed: Connection timed out
[1741103933.665799] [ohm:832392:0]        ib_iface.c:1059 UCX  ERROR ibv_create_cq(cqe=256) failed: Connection timed out
[1741103933.667379] [ohm:832345:0]        ib_iface.c:1059 UCX  ERROR ibv_create_cq(cqe=256) failed: Connection timed out
[1741103933.692035] [ohm:832362:0]        ib_iface.c:1059 UCX  ERROR ibv_create_cq(cqe=256) failed: Connection timed out
[1741103933.700834] [ohm:832344:0]        ib_iface.c:1059 UCX  ERROR ibv_create_cq(cqe=256) failed: Connection timed out
[1741103933.714829] [ohm:832370:0]        ib_iface.c:1059 UCX  ERROR ibv_create_cq(cqe=256) failed: Connection timed out
[1741103933.719237] [ohm:832367:0]        ib_iface.c:1059 UCX  ERROR ibv_create_cq(cqe=256) failed: Connection timed out
[1741103933.719597] [ohm:832387:0]        ib_iface.c:1059 UCX  ERROR ibv_create_cq(cqe=256) failed: Connection timed out
[1741103933.724009] [ohm:832376:0]        ib_iface.c:1059 UCX  ERROR ibv_create_cq(cqe=256) failed: Connection timed out
[1741103933.736925] [ohm:832377:0]        ib_iface.c:1059 UCX  ERROR ibv_create_cq(cqe=256) failed: Connection timed out
[1741103933.740631] [ohm:832393:0]        ib_iface.c:1059 UCX  ERROR ibv_create_cq(cqe=256) failed: Connection timed out
[1741103933.764636] [ohm:832395:0]        ib_iface.c:1059 UCX  ERROR ibv_create_cq(cqe=256) failed: Connection timed out
[1741103933.775198] [ohm:832425:0]        ib_iface.c:1059 UCX  ERROR ibv_create_cq(cqe=256) failed: Connection timed out
[1741103933.781230] [ohm:832394:0]        ib_iface.c:1059 UCX  ERROR ibv_create_cq(cqe=256) failed: Connection timed out
[1741103933.790019] [ohm:832451:0]        ib_iface.c:1059 UCX  ERROR ibv_create_cq(cqe=256) failed: Connection timed out
[1741103933.814481] [ohm:832352:0]        ib_iface.c:1059 UCX  ERROR ibv_create_cq(cqe=256) failed: Connection timed out
[1741103933.825425] [ohm:832399:0]        ib_iface.c:1059 UCX  ERROR ibv_create_cq(cqe=256) failed: Connection timed out
[1741103933.826491] [ohm:832423:0]        ib_iface.c:1059 UCX  ERROR ibv_create_cq(cqe=256) failed: Connection timed out
[1741103933.832738] [ohm:832382:0]        ib_iface.c:1059 UCX  ERROR ibv_create_cq(cqe=256) failed: Connection timed out
[1741103933.833214] [ohm:832400:0]        ib_iface.c:1059 UCX  ERROR ibv_create_cq(cqe=256) failed: Connection timed out
[1741103933.836206] [ohm:832406:0]        ib_iface.c:1059 UCX  ERROR ibv_create_cq(cqe=256) failed: Connection timed out
[1741103933.837714] [ohm:832419:0]        ib_iface.c:1059 UCX  ERROR ibv_create_cq(cqe=256) failed: Connection timed out
[1741103933.843642] [ohm:832429:0]        ib_iface.c:1059 UCX  ERROR ibv_create_cq(cqe=256) failed: Connection timed out
[1741103933.848293] [ohm:832441:0]        ib_iface.c:1059 UCX  ERROR ibv_create_cq(cqe=256) failed: Connection timed out
[1741103933.849584] [ohm:832413:0]        ib_iface.c:1059 UCX  ERROR ibv_create_cq(cqe=256) failed: Connection timed out
[1741103933.850791] [ohm:832432:0]        ib_iface.c:1059 UCX  ERROR ibv_create_cq(cqe=256) failed: Connection timed out
[1741103933.856309] [ohm:832457:0]        ib_iface.c:1059 UCX  ERROR ibv_create_cq(cqe=256) failed: Connection timed out
[1741103933.861498] [ohm:832476:0]        ib_iface.c:1059 UCX  ERROR ibv_create_cq(cqe=256) failed: Connection timed out
[1741103933.864629] [ohm:832455:0]        ib_iface.c:1059 UCX  ERROR ibv_create_cq(cqe=256) failed: Connection timed out
[1741103933.865509] [ohm:832401:0]        ib_iface.c:1059 UCX  ERROR ibv_create_cq(cqe=256) failed: Connection timed out
[1741103933.868021] [ohm:832469:0]        ib_iface.c:1059 UCX  ERROR ibv_create_cq(cqe=256) failed: Connection timed out
[1741103933.883102] [ohm:832480:0]        ib_iface.c:1059 UCX  ERROR ibv_create_cq(cqe=256) failed: Connection timed out
[1741103933.907238] [ohm:832435:0]        ib_iface.c:1059 UCX  ERROR ibv_create_cq(cqe=256) failed: Connection timed out
[1741103933.913853] [ohm:832482:0]        ib_iface.c:1059 UCX  ERROR ibv_create_cq(cqe=256) failed: Connection timed out
[1741103933.918212] [ohm:832484:0]        ib_iface.c:1059 UCX  ERROR ibv_create_cq(cqe=256) failed: Connection timed out
[1741103933.920444] [ohm:832350:0]        ib_iface.c:1059 UCX  ERROR ibv_create_cq(cqe=256) failed: Connection timed out
[1741103933.925254] [ohm:832488:0]        ib_iface.c:1059 UCX  ERROR ibv_create_cq(cqe=256) failed: Connection timed out
[1741103933.932078] [ohm:832472:0]        ib_iface.c:1059 UCX  ERROR ibv_create_cq(cqe=256) failed: Connection timed out
[1741103933.953981] [ohm:832402:0]        ib_iface.c:1059 UCX  ERROR ibv_create_cq(cqe=256) failed: Connection timed out
[1741103933.958169] [ohm:832361:0]        ib_iface.c:1059 UCX  ERROR ibv_create_cq(cqe=256) failed: Connection timed out
[1741103933.959846] [ohm:832461:0]        ib_iface.c:1059 UCX  ERROR ibv_create_cq(cqe=256) failed: Connection timed out
[1741103933.962304] [ohm:832381:0]        ib_iface.c:1059 UCX  ERROR ibv_create_cq(cqe=256) failed: Connection timed out
[1741103933.968334] [ohm:832388:0]        ib_iface.c:1059 UCX  ERROR ibv_create_cq(cqe=256) failed: Connection timed out
[1741103933.968440] [ohm:832396:0]        ib_iface.c:1059 UCX  ERROR ibv_create_cq(cqe=256) failed: Connection timed out
[1741103933.972426] [ohm:832447:0]        ib_iface.c:1059 UCX  ERROR ibv_create_cq(cqe=256) failed: Connection timed out
[1741103933.980055] [ohm:832390:0]        ib_iface.c:1059 UCX  ERROR ibv_create_cq(cqe=256) failed: Connection timed out
[1741103933.981238] [ohm:832341:0]        ib_iface.c:1059 UCX  ERROR ibv_create_cq(cqe=256) failed: Connection timed out
[1741103933.981652] [ohm:832343:0]        ib_iface.c:1059 UCX  ERROR ibv_create_cq(cqe=256) failed: Connection timed out
[1741103933.985702] [ohm:832398:0]        ib_iface.c:1059 UCX  ERROR ibv_create_cq(cqe=256) failed: Connection timed out
[1741103933.987082] [ohm:832349:0]        ib_iface.c:1059 UCX  ERROR ibv_create_cq(cqe=256) failed: Connection timed out
[1741103933.989506] [ohm:832415:0]        ib_iface.c:1059 UCX  ERROR ibv_create_cq(cqe=256) failed: Connection timed out
[1741103933.992516] [ohm:832397:0]        ib_iface.c:1059 UCX  ERROR ibv_create_cq(cqe=256) failed: Connection timed out
[1741103933.993409] [ohm:832371:0]        ib_iface.c:1059 UCX  ERROR ibv_create_cq(cqe=256) failed: Connection timed out
[1741103933.994350] [ohm:832438:0]        ib_iface.c:1059 UCX  ERROR ibv_create_cq(cqe=256) failed: Connection timed out
[1741103933.996841] [ohm:832348:0]        ib_iface.c:1059 UCX  ERROR ibv_create_cq(cqe=256) failed: Connection timed out
[1741103933.997192] [ohm:832346:0]        ib_iface.c:1059 UCX  ERROR ibv_create_cq(cqe=256) failed: Connection timed out
[1741103933.998632] [ohm:832463:0]        ib_iface.c:1059 UCX  ERROR ibv_create_cq(cqe=256) failed: Connection timed out
[1741103933.999606] [ohm:832407:0]        ib_iface.c:1059 UCX  ERROR ibv_create_cq(cqe=256) failed: Connection timed out
[1741103934.000616] [ohm:832464:0]        ib_iface.c:1059 UCX  ERROR ibv_create_cq(cqe=256) failed: Connection timed out
[1741103934.000671] [ohm:832351:0]        ib_iface.c:1059 UCX  ERROR ibv_create_cq(cqe=256) failed: Connection timed out
[1741103934.000889] [ohm:832342:0]        ib_iface.c:1059 UCX  ERROR ibv_create_cq(cqe=256) failed: Connection timed out
[1741103934.003215] [ohm:832365:0]        ib_iface.c:1059 UCX  ERROR ibv_create_cq(cqe=256) failed: Connection timed out

--------------------------------
SUGGESTED CITATIONS FOR THIS RUN
--------------------------------

Below you find a list of papers that are relevant to this ORCA run
We neither can nor want to force you to cite these papers, but we appreciate if you do
You receive ORCA, which is the product of decades of hard work by many enthusiastic individuals, for free
The only thing we kindly ask in return is that you cite our papers,
We deeply appreciate it, if you show your appreciation for ORCA by not just citing the generic ORCA reference.

Please note that relegating all ORCA citations to the supporting information does *not* help us.
SI sections are not indexed - citations you put there will not count into any citation statistics
But we need these citations in order to attract the funding resources that allow us to do what we are doing

Therefore, if you are a happy ORCA user, please consider citing a few of the papers listed below in the main body of your paper

In addition to the list printed below, the program has created the file orca.bibtex that contains the list in bibtex format
You can import this file easily into all common literature databanks and citation aid programs


List of essential papers. We consider these as the minimum necessary citations

  1. Neese,F.
     Software update: the ORCA program system, version 5.0
     WIRES Comput. Molec. Sci., 2022 12(1)e1606
     doi.org/10.1002/wcms.1606

List of papers to cite with high priority. The work reported in these papers was absolutely
necessary for this run to complete.
Our perspective: the developers of density functionals and basis sets usually get cited in chemistry papers
Good! But without the algorithms to do something with them, the functionals or basis sets would not do anything.
Hence, in our opinion, the algorithm design and method developments papers are equally worthy of getting cited

  1. Neese,F.; Olbrich,G.
     Efficient use of the resolution of the identity approximation in time-dependent density functional calculations with hybrid density functionals
     Chem. Phys. Lett., 2002 362 170-178
     doi.org/10.1016/s0009-2614(02)01053-9
  2. Neese,F.
     An improvement of the resolution of the identity approximation for the formation of the Coulomb matrix
     J. Comp. Chem., 2003 24(14)1740-1747
     doi.org/10.1002/jcc.10318
  3. Neese,F.; Wennmohs,F.; Hansen,A.; Becker,U.
     Efficient, approximate and parallel Hartree-Fock and hybrid DFT calculations. A 'chain-of-spheres' algorithm for the Hartree-Fock exchange
     Chem. Phys., 2009 356(1-3)98-109
     doi.org/10.1016/j.chemphys.2008.10.036
  4. Petrenko,T.; Kossmann,S.; Neese,F.
     Efficient time-dependent density functional theory approximations for hybrid density functionals: Analytical gradients and parallelization
     J. Chem. Phys., 2011 134 054116
     doi.org/10.1063/1.3533441
  5. Helmich-Paris,B.; de Souza,B.; Neese,F.; Izsák,R.
     An improved chain of spheres for exchange algorithm
     J. Chem. Phys., 2021 155 104109
     doi.org/doi: 10.1063/5.0058766.
  6. Neese,F.
     The SHARK Integral Generation and Digestion System
     J. Comp. Chem., 2022  1-16
     doi.org/10.1002/jcc.26942
  7. Lehtola,S.; Steigemann,C.; Oliveira,M.; Marques,M.
     Recent developments in Libxc - A comprehensive library of functionals for density functional theory
     Software X, 2018 7 
     doi.org/10.1016/j.softx.2017.11.002
  8. Grimme,S.; Antony,J.; Ehrlich,S.; Krieg,H.
     A consistent and accurate ab initio parametrization of density functional dispersion correction (DFT-D) for the 94 elements H-Pu
     J. Chem. Phys., 2010 132 154104-XXXX
     doi.org/10.1063/1.3382344
  9. Grimme,S.; Ehrlich,S.; Goerigk,L.
     Effect of the damping function in dispersion corrected density functional theory
     J. Comput. Chem., 2011 32(7)1456-1465
     doi.org/10.1002/jcc.21759

List of suggested additional citations. These are papers that are important in the 'surrounding' of 
of this run, or papers that preceded the highly important papers. If you like your results we are grateful for a citation.

  1. Izsak,R.; Neese,F.
     An overlap fitted chain of spheres exchange method
     J. Chem. Phys., 2011 135 144105
     doi.org/10.1063/1.3646921
  2. Izsak,R.; Hansen,A.; Neese,F.
     The resolution of identity and chain of spheres approximations for the LPNO-CCSD singles Fock term
     Molec. Phys., 2012 110 2413-2417
     doi.org/10.1080/00268976.2012.687466
  3. Neese,F.
     The ORCA program system
     WIRES Comput. Molec. Sci., 2012 2(1)73-78
     doi.org/10.1002/wcms.81
  4. Izsak,R.; Neese,F.; Klopper,W.
     Robust fitting techniques in the chain of spheres approximation to the Fock exchange: The role of the complementary space
     J. Chem. Phys., 2013 139 
     doi.org/10.1063/1.4819264
  5. Neese,F.
     Software update: the ORCA program system, version 4.0
     WIRES Comput. Molec. Sci., 2018 8(1)1-6
     doi.org/10.1002/wcms.1327
  6. Neese,F.; Wennmohs,F.; Becker,U.; Riplinger,C.
     The ORCA quantum chemistry program package
     J. Chem. Phys., 2020 152 Art. No. L224108
     doi.org/10.1063/5.0004608

List of optional additional citations

  1. Neese,F.
     Approximate second-order SCF convergence for spin unrestricted wavefunctions
     Chem. Phys. Lett., 2000 325(1-3)93-98
     doi.org/10.1016/s0009-2614(00)00662-x

Timings for individual modules:

Sum of individual times          ...      310.962 sec (=   5.183 min)
Startup calculation              ...        6.502 sec (=   0.108 min)   2.1 %
SCF iterations                   ...      128.326 sec (=   2.139 min)  41.3 %
Property integrals               ...        4.213 sec (=   0.070 min)   1.4 %
Property calculations            ...        2.971 sec (=   0.050 min)   1.0 %
CIS module                       ...      168.950 sec (=   2.816 min)  54.3 %
                             ****ORCA TERMINATED NORMALLY****
TOTAL RUN TIME: 0 days 0 hours 5 minutes 13 seconds 67 msec
