
                                 *****************
                                 * O   R   C   A *
                                 *****************

                                            #,                                       
                                            ###                                      
                                            ####                                     
                                            #####                                    
                                            ######                                   
                                           ########,                                 
                                     ,,################,,,,,                         
                               ,,#################################,,                 
                          ,,##########################################,,             
                       ,#########################################, ''#####,          
                    ,#############################################,,   '####,        
                  ,##################################################,,,,####,       
                ,###########''''           ''''###############################       
              ,#####''   ,,,,##########,,,,          '''####'''          '####       
            ,##' ,,,,###########################,,,                        '##       
           ' ,,###''''                  '''############,,,                           
         ,,##''                                '''############,,,,        ,,,,,,###''
      ,#''                                            '''#######################'''  
     '                                                          ''''####''''         
             ,#######,   #######,   ,#######,      ##                                
            ,#'     '#,  ##    ##  ,#'     '#,    #''#        ,####,   ,####,        
            ##       ##  ##   ,#'  ##            #'  '#       #'       #'  '#        
            ##       ##  #######   ##           ,######,      #####,   #    #        
            '#,     ,#'  ##    ##  '#,     ,#' ,#      #,     #,   #   #,  ,#        
             '#######'   ##     ##  '#######'  #'      '#     '####' # '####'        



                #########################################################
                #                        -***-                          #
                #          Department of theory and spectroscopy        #
                #                                                       #
                #                      Frank Neese                      #
                #                                                       #
                #     Directorship, Architecture, Infrastructure        #
                #                    SHARK, DRIVERS                     #
                #        Core code/Algorithms in most modules           #
                #                                                       #
                #        Max Planck Institute fuer Kohlenforschung      #
                #                Kaiser Wilhelm Platz 1                 #
                #                 D-45470 Muelheim/Ruhr                 #
                #                      Germany                          #
                #                                                       #
                #                  All rights reserved                  #
                #                        -***-                          #
                #########################################################


                         Program Version 6.0.0  -   RELEASE  -


 With contributions from (in alphabetic order):
   Daniel Aravena         : Magnetic Suceptibility
   Michael Atanasov       : Ab Initio Ligand Field Theory (pilot matlab implementation)
   Alexander A. Auer      : GIAO ZORA, VPT2 properties, NMR spectrum
   Ute Becker             : All parallelization in ORCA, NUMFREQ, NUMCALC
   Giovanni Bistoni       : ED, misc. LED, open-shell LED, HFLD
   Martin Brehm           : Molecular dynamics
   Dmytro Bykov           : pre 5.0 version of the SCF Hessian
   Marcos Casanova-Páez   : Triplet and SCS-CIS(D). UHF-(DLPNO)-IP/EA/STEOM-CCSD. UHF-CVS-IP/STEOM-CCSD
   Vijay G. Chilkuri      : MRCI spin determinant printing, contributions to CSF-ICE
   Pauline Colinet        : FMM embedding
   Dipayan Datta          : RHF DLPNO-CCSD density
   Achintya Kumar Dutta   : EOM-CC, STEOM-CC
   Nicolas Foglia         : Exact transition moments, OPA infrastructure, MCD improvements
   Dmitry Ganyushin       : Spin-Orbit,Spin-Spin,Magnetic field MRCI
   Miquel Garcia          : C-PCM and meta-GGA Hessian, CCSD/C-PCM, Gaussian charge scheme
   Tiago L. C. Gouveia    : GS-ROHF, GS-ROCIS
   Yang Guo               : DLPNO-NEVPT2, F12-NEVPT2, CIM, IAO-localization
   Andreas Hansen         : Spin unrestricted coupled pair/coupled cluster methods
   Ingolf Harden          : AUTO-CI MPn and infrastructure 
   Benjamin Helmich-Paris : MC-RPA, TRAH-(SCF,CASSCF), AVAS, COSX integrals, SCF dyn. polar.
   Lee Huntington         : MR-EOM, pCC
   Robert Izsak           : Overlap fitted RIJCOSX, COSX-SCS-MP3, EOM
   Riya Kayal             : Wick's Theorem for AUTO-CI, AUTO-CI UHF-CCSDT
   Emily Kempfer          : AUTO-CI, RHF CISDT and CCSDT
   Christian Kollmar      : KDIIS, OOCD, Brueckner-CCSD(T), CCSD density, CASPT2, CASPT2-K, improved NEVPT2
   Axel Koslowski         : Symmetry handling
   Simone Kossmann        : Meta GGA functionals, TD-DFT gradient, OOMP2, (MP2 Hessian; deprecated post 5.0)
   Lucas Lang             : DCDCAS
   Marvin Lechner         : AUTO-CI (C++ implementation), FIC-MRCC
   Spencer Leger          : CASSCF response
   Dagmar Lenk            : GEPOL surface, SMD, ORCA-2-JSON
   Dimitrios Liakos       : Extrapolation schemes; Compound Job, initial MDCI parallelization
   Dimitrios Manganas     : Further ROCIS development; embedding schemes. LFT, Crystal Embedding
   Dimitrios Pantazis     : SARC Basis sets
   Anastasios Papadopoulos: AUTO-CI, single reference methods and gradients
   Taras Petrenko         : pre 6.0 DFT Hessian and TD-DFT gradient, (ASA, deprecated), ECA, 1-Electron XAS/XES, NRVS
   Peter Pinski           : DLPNO-MP2, DLPNO-MP2 Gradient
   Christoph Reimann      : Effective Core Potentials
   Marius Retegan         : Local ZFS, SOC
   Christoph Riplinger    : Optimizer, TS searches, QM/MM, DLPNO-CCSD(T), (RO)-DLPNO pert. Triples
   Michael Roemelt        : Original ROCIS implementation
   Masaaki Saitow         : Open-shell DLPNO-CCSD energy and density
   Barbara Sandhoefer     : DKH picture change effects
   Kantharuban Sivalingam : CASSCF convergence/infrastructure, NEVPT2 and variants, FIC-MRCI
   Bernardo de Souza      : ESD, SOC TD-DFT
   Georgi Stoychev        : AutoAux, RI-MP2 NMR, DLPNO-MP2 response, X2C
   Van Anh Tran           : RI-MP2 g-tensors
   Willem Van den Heuvel  : Paramagnetic NMR
   Zikuan Wang            : NOTCH, Electric field optimization 
   Frank Wennmohs         : Technical directorship and infrastructure
   Hang Xu                : AUTO-CI-Response properties 


 We gratefully acknowledge several colleagues who have allowed us to
 interface, adapt or use parts of their codes:
   Stefan Grimme, W. Hujo, H. Kruse, P. Pracht,  : VdW corrections, initial TS optimization,
                  C. Bannwarth, S. Ehlert,         DFT functionals, gCP, sTDA/sTD-DF
                  L. Wittmann, M. Mueller
   Ed Valeev, F. Pavosevic, A. Kumar             : LibInt (2-el integral package), F12 methods
   Garnet Chan, S. Sharma, J. Yang, R. Olivares  : DMRG
   Ulf Ekstrom                                   : XCFun DFT Library
   Mihaly Kallay                                 : mrcc  (arbitrary order and MRCC methods)
   Frank Weinhold                                : gennbo (NPA and NBO analysis)
   Simon Mueller                                 : openCOSMO-RS
   Christopher J. Cramer and Donald G. Truhlar   : smd solvation model
   Lars Goerigk                                  : TD-DFT with DH, B97 family of functionals
   V. Asgeirsson, H. Jonsson                     : NEB implementation
   FAccTs GmbH                                   : IRC, NEB, NEB-TS, DLPNO-Multilevel, CI-OPT
                                                   MM, QMMM, 2- and 3-layer-ONIOM, Crystal-QMMM,
                                                   LR-CPCM, SF, NACMEs, symmetry and pop. for TD-DFT,
                                                   nearIR, NL-DFT gradient (VV10), updates on ESD,
                                                   ML-optimized integration grids, MBIS, APM,
                                                   GOAT, DOCKER, SOLVATOR, interface openCOSMO-RS
   S Lehtola, MJT Oliveira, MAL Marques          : LibXC Library
   Liviu Ungur et al                             : ANISO software


 Your calculation uses the libint2 library for the computation of 2-el integrals
 For citations please refer to: http://libint.valeyev.net

 Your ORCA version has been built with support for libXC version: 6.2.2
 For citations please refer to: https://libxc.gitlab.io

 This ORCA versions uses:
   CBLAS   interface :  Fast vector & matrix operations
   LAPACKE interface :  Fast linear algebra routines
   SCALAPACK package :  Parallel linear algebra routines
   Shared memory     :  Shared parallel matrices
   BLAS/LAPACK       :  OpenBLAS 0.3.27  USE64BITINT DYNAMIC_ARCH NO_AFFINITY Zen SINGLE_THREADED
        Core in use  :  Zen
   Copyright (c) 2011-2014, The OpenBLAS Project


Your calculation utilizes the atom-pairwise dispersion correction
with the Becke-Johnson damping scheme (D3BJ)


Warning: RI is on but no J-basis has been assigned. Assigning Def2/J (nothing to worry about!)
================================================================================

----- Orbital basis set information -----
Your calculation utilizes the basis: def2-TZVPPD
   F. Weigend and R. Ahlrichs, Phys. Chem. Chem. Phys. 7, 3297 (2005).
   D. Rappoport and F. Furche, J. Chem. Phys. 133, 134105 (2010)
   D. Rappoport, J. Chem. Phys. 155, 124102 (2021).

----- AuxJ basis set information -----
Your calculation utilizes the auxiliary basis: def2/J
   F. Weigend, Phys. Chem. Chem. Phys. 8, 1057 (2006).

================================================================================
                                        WARNINGS
                       Please study these warnings very carefully!
================================================================================

Using LibXC functional ID 531 : wB97M-V exchange-correlation functional
[ 1]  N. Mardirossian and M. Head-Gordon.,  J. Chem. Phys. 144, 214110 (2016)
Using LibXC functional ID 531 : wB97M-V exchange-correlation functional
[ 1]  N. Mardirossian and M. Head-Gordon.,  J. Chem. Phys. 144, 214110 (2016)

WARNING: B97M-V or wB97M-V functional requested.
  ===> : libXC variant has now been activated.
         Any manually given DFX/HFX/RangeSep scaling parameters are IGNORED!

Your calculation utilizes LibXC
 by S Lehtola, C Steigemann, MJT Oliveira & MAL Marques
Please cite in your paper:
 S Lehtola, C Steigemann, MJT Oliveira & MAL Marques, SoftwareX, 7, (2018), 1.
   


WARNING: your system is open-shell and RHF/RKS was chosen
  ===> : WILL SWITCH to UHF/UKS

INFO   : Checking CIS options ...

WARNING: CIS/ROCIS methods need fully converged wavefunctions
  ===> : Setting SCFConvForced true
         You can overwrite this default with %scf ConvForced false 


================================================================================
                                       INPUT FILE
================================================================================
NAME = orca.inp
|  1> ! Engrad def2-TZVPPD wB97M-D3BJ 
|  2> %pal nprocs 8 end%pal nprocs 64 end 
|  3> %tddft Nroots 2 Iroot 2 
|  4> sf true 
|  5> end 
|  6> *xyz 0 3 
|  7> O   3.52403896 0.34147612 -0.4324527
|  8> O   -1.28377963 1.99871311 -2.22533645
|  9> O   0.78054304 -3.21894921 -0.71709086
| 10> O   -3.2789458 -1.56007091 -0.52656328
| 11> N   0.11923815 -1.44851626 0.55668017
| 12> N   -2.16553517 -0.2528948 0.98173494
| 13> N   2.10300065 -1.35763333 -0.59392657
| 14> N   -2.10891652 0.15803352 -1.35085106
| 15> C   1.73188153 0.33655566 1.09330466
| 16> C   -0.78658653 1.59831729 0.03288109
| 17> C   0.36423559 -0.25533532 1.37096019
| 18> C   -0.98928586 0.73898357 1.20767746
| 19> C   2.47602477 1.12740289 2.21679441
| 20> C   -0.13037441 2.95571201 0.25265179
| 21> C   2.48506434 -0.18681251 -0.04811698
| 22> C   -1.39263617 1.30201172 -1.25235428
| 23> C   1.00166871 -2.07458628 -0.24743469
| 24> C   -2.54820263 -0.60330292 -0.30670988
| 25> H   0.43046652 -0.58976276 2.37118481
| 26> H   -1.04708654 1.22867699 2.12288294
| 27> H   2.91679219 2.05483969 1.8021223
| 28> H   1.79960587 1.43254049 2.92907487
| 29> H   3.26806167 0.41636008 2.44034791
| 30> H   -0.827907 3.69636709 -0.32726214
| 31> H   0.16099377 3.26832688 1.24616674
| 32> H   0.76242991 2.92973148 -0.44310484
| 33> H   -0.59679767 -2.04800749 0.88357726
| 34> H   -2.70472305 -0.52852211 1.76726787
| 35> H   2.73951291 -1.87278292 -1.22483394
| 36> H   -2.55314396 0.04260632 -2.23694115
| 37> *
| 38> 
| 39>                          ****END OF INPUT****
================================================================================

                     *******************************
                     * Energy+Gradient Calculation *
                     *******************************

---------------------------------
CARTESIAN COORDINATES (ANGSTROEM)
---------------------------------
  O      3.524039    0.341476   -0.432453
  O     -1.283780    1.998713   -2.225336
  O      0.780543   -3.218949   -0.717091
  O     -3.278946   -1.560071   -0.526563
  N      0.119238   -1.448516    0.556680
  N     -2.165535   -0.252895    0.981735
  N      2.103001   -1.357633   -0.593927
  N     -2.108917    0.158034   -1.350851
  C      1.731882    0.336556    1.093305
  C     -0.786587    1.598317    0.032881
  C      0.364236   -0.255335    1.370960
  C     -0.989286    0.738984    1.207677
  C      2.476025    1.127403    2.216794
  C     -0.130374    2.955712    0.252652
  C      2.485064   -0.186813   -0.048117
  C     -1.392636    1.302012   -1.252354
  C      1.001669   -2.074586   -0.247435
  C     -2.548203   -0.603303   -0.306710
  H      0.430467   -0.589763    2.371185
  H     -1.047087    1.228677    2.122883
  H      2.916792    2.054840    1.802122
  H      1.799606    1.432540    2.929075
  H      3.268062    0.416360    2.440348
  H     -0.827907    3.696367   -0.327262
  H      0.160994    3.268327    1.246167
  H      0.762430    2.929731   -0.443105
  H     -0.596798   -2.048007    0.883577
  H     -2.704723   -0.528522    1.767268
  H      2.739513   -1.872783   -1.224834
  H     -2.553144    0.042606   -2.236941

----------------------------
CARTESIAN COORDINATES (A.U.)
----------------------------
  NO LB      ZA    FRAG     MASS         X           Y           Z
   0 O     8.0000    0    15.999    6.659469    0.645296   -0.817217
   1 O     8.0000    0    15.999   -2.425992    3.777020   -4.205276
   2 O     8.0000    0    15.999    1.475013   -6.082932   -1.355105
   3 O     8.0000    0    15.999   -6.196310   -2.948107   -0.995060
   4 N     7.0000    0    14.007    0.225327   -2.737299    1.051973
   5 N     7.0000    0    14.007   -4.092268   -0.477902    1.855210
   6 N     7.0000    0    14.007    3.974095   -2.565555   -1.122359
   7 N     7.0000    0    14.007   -3.985275    0.298640   -2.552739
   8 C     6.0000    0    12.011    3.272782    0.635998    2.066046
   9 C     6.0000    0    12.011   -1.486433    3.020382    0.062136
  10 C     6.0000    0    12.011    0.688306   -0.482514    2.590739
  11 C     6.0000    0    12.011   -1.869479    1.396477    2.282180
  12 C     6.0000    0    12.011    4.679009    2.130483    4.189134
  13 C     6.0000    0    12.011   -0.246372    5.585486    0.477443
  14 C     6.0000    0    12.011    4.696091   -0.353024   -0.090928
  15 C     6.0000    0    12.011   -2.631701    2.460446   -2.366607
  16 C     6.0000    0    12.011    1.892880   -3.920400   -0.467584
  17 C     6.0000    0    12.011   -4.815405   -1.140077   -0.579598
  18 H     1.0000    0     1.008    0.813464   -1.114490    4.480890
  19 H     1.0000    0     1.008   -1.978707    2.321863    4.011667
  20 H     1.0000    0     1.008    5.511938    3.883084    3.405518
  21 H     1.0000    0     1.008    3.400762    2.707109    5.535149
  22 H     1.0000    0     1.008    6.175742    0.786807    4.611589
  23 H     1.0000    0     1.008   -1.564517    6.985121   -0.618436
  24 H     1.0000    0     1.008    0.304234    6.176243    2.354914
  25 H     1.0000    0     1.008    1.440784    5.536390   -0.837347
  26 H     1.0000    0     1.008   -1.127784   -3.870173    1.669719
  27 H     1.0000    0     1.008   -5.111186   -0.998762    3.339652
  28 H     1.0000    0     1.008    5.176929   -3.539047   -2.314601
  29 H     1.0000    0     1.008   -4.824743    0.080514   -4.227206

--------------------------------
INTERNAL COORDINATES (ANGSTROEM)
--------------------------------
 O      0   0   0     0.000000000000     0.00000000     0.00000000
 O      1   0   0     5.392215331048     0.00000000     0.00000000
 O      1   2   0     4.503822518227    71.26559305     0.00000000
 O      3   1   2     4.389490587191   105.17988481   337.14286914
 N      3   1   2     2.279089648270    61.79227840   303.73288854
 N      4   3   1     2.285466283717    78.12677525   321.26645497
 N      1   2   3     2.220899955482    68.92766933   359.74653008
 N      2   1   3     2.198562470708    86.85124218    20.96775190
 C      1   2   3     2.353675420789    62.43680041   289.18511401
 C      2   1   3     2.346713499626    55.85422338    80.80175269
 C      5   3   1     1.465181371762   153.46921495   335.38587159
 C     10   2   1     1.469587687645   147.11959882   250.65256010
 C      9   1   2     1.562503670777    95.87849625   230.95100290
 C     10   2   1     1.523625259996    94.47633264    82.03309136
 C      1   2   3     1.227302360162    58.77577666   325.78357434
 C      2   1   3     1.201639245475    68.49109516    48.82029556
 C      3   1   2     1.256598581692    31.70779631   303.11956872
 C      4   3   1     1.223816197262    75.58403942   353.08372724
 H     11   5   3     1.056729643366   106.18823891   267.92309116
 H     12  10   2     1.039587242526   115.84814223   217.25837730
 H     13   9   1     1.107414960771   110.13268798    51.39061384
 H     13   9   1     1.028588808470   109.56501818   167.39349790
 H     13   9   1     1.087603096712    99.42287152   296.42160672
 H     14  10   2     1.171077208321   103.62061093    41.20145897
 H     14  10   2     1.081524585544   120.40100078   172.36334218
 H     14  10   2     1.132188955051   103.32912030   296.86370936
 H      5   3   1     0.989423437069    85.63953017   190.84314954
 H      6   4   3     0.991844729820    95.67577294   242.31406643
 H      7   1   2     1.033717111558    91.81373368   123.19536218
 H      8   2   1     0.997906360610    84.87825320   229.05751882

---------------------------
INTERNAL COORDINATES (A.U.)
---------------------------
 O      0   0   0     0.000000000000     0.00000000     0.00000000
 O      1   0   0    10.189810230812     0.00000000     0.00000000
 O      1   2   0     8.510991115237    71.26559305     0.00000000
 O      3   1   2     8.294935077216   105.17988481   337.14286914
 N      3   1   2     4.306855269885    61.79227840   303.73288854
 N      4   3   1     4.318905364536    78.12677525   321.26645497
 N      1   2   3     4.196892686699    68.92766933   359.74653008
 N      2   1   3     4.154680957955    86.85124218    20.96775190
 C      1   2   3     4.447801953433    62.43680041   289.18511401
 C      2   1   3     4.434645829068    55.85422338    80.80175269
 C      5   3   1     2.768791529152   153.46921495   335.38587159
 C     10   2   1     2.777118259431   147.11959882   250.65256010
 C      9   1   2     2.952704021015    95.87849625   230.95100290
 C     10   2   1     2.879234472117    94.47633264    82.03309136
 C      1   2   3     2.319265344221    58.77577666   325.78357434
 C      2   1   3     2.270769085720    68.49109516    48.82029556
 C      3   1   2     2.374627179672    31.70779631   303.11956872
 C      4   3   1     2.312677451083    75.58403942   353.08372724
 H     11   5   3     1.996929623557   106.18823891   267.92309116
 H     12  10   2     1.964535180692   115.84814223   217.25837730
 H     13   9   1     2.092710992464   110.13268798    51.39061384
 H     13   9   1     1.943751152424   109.56501818   167.39349790
 H     13   9   1     2.055271995190    99.42287152   296.42160672
 H     14  10   2     2.213015205405   103.62061093    41.20145897
 H     14  10   2     2.043785273780   120.40100078   172.36334218
 H     14  10   2     2.139527056896   103.32912030   296.86370936
 H      5   3   1     1.869739326543    85.63953017   190.84314954
 H      6   4   3     1.874314906732    95.67577294   242.31406643
 H      7   1   2     1.953442240793    91.81373368   123.19536218
 H      8   2   1     1.885769728850    84.87825320   229.05751882

---------------------
BASIS SET INFORMATION
---------------------
There are 4 groups of distinct atoms

 Group   1 Type O   : 12s7p3d1f contracted to 6s4p3d1f pattern {621111/4111/111/1}
 Group   2 Type N   : 12s6p3d1f contracted to 6s3p3d1f pattern {621111/411/111/1}
 Group   3 Type C   : 12s6p3d1f contracted to 6s3p3d1f pattern {621111/411/111/1}
 Group   4 Type H   : 5s3p1d contracted to 3s3p1d pattern {311/111/1}

Atom   0O    basis set group =>   1
Atom   1O    basis set group =>   1
Atom   2O    basis set group =>   1
Atom   3O    basis set group =>   1
Atom   4N    basis set group =>   2
Atom   5N    basis set group =>   2
Atom   6N    basis set group =>   2
Atom   7N    basis set group =>   2
Atom   8C    basis set group =>   3
Atom   9C    basis set group =>   3
Atom  10C    basis set group =>   3
Atom  11C    basis set group =>   3
Atom  12C    basis set group =>   3
Atom  13C    basis set group =>   3
Atom  14C    basis set group =>   3
Atom  15C    basis set group =>   3
Atom  16C    basis set group =>   3
Atom  17C    basis set group =>   3
Atom  18H    basis set group =>   4
Atom  19H    basis set group =>   4
Atom  20H    basis set group =>   4
Atom  21H    basis set group =>   4
Atom  22H    basis set group =>   4
Atom  23H    basis set group =>   4
Atom  24H    basis set group =>   4
Atom  25H    basis set group =>   4
Atom  26H    basis set group =>   4
Atom  27H    basis set group =>   4
Atom  28H    basis set group =>   4
Atom  29H    basis set group =>   4
---------------------------------
AUXILIARY/J BASIS SET INFORMATION
---------------------------------
There are 4 groups of distinct atoms

 Group   1 Type O   : 12s5p4d2f1g contracted to 6s4p3d1f1g pattern {711111/2111/211/2/1}
 Group   2 Type N   : 12s5p4d2f1g contracted to 6s4p3d1f1g pattern {711111/2111/211/2/1}
 Group   3 Type C   : 12s5p4d2f1g contracted to 6s4p3d1f1g pattern {711111/2111/211/2/1}
 Group   4 Type H   : 5s2p1d contracted to 3s1p1d pattern {311/2/1}

Atom   0O    basis set group =>   1
Atom   1O    basis set group =>   1
Atom   2O    basis set group =>   1
Atom   3O    basis set group =>   1
Atom   4N    basis set group =>   2
Atom   5N    basis set group =>   2
Atom   6N    basis set group =>   2
Atom   7N    basis set group =>   2
Atom   8C    basis set group =>   3
Atom   9C    basis set group =>   3
Atom  10C    basis set group =>   3
Atom  11C    basis set group =>   3
Atom  12C    basis set group =>   3
Atom  13C    basis set group =>   3
Atom  14C    basis set group =>   3
Atom  15C    basis set group =>   3
Atom  16C    basis set group =>   3
Atom  17C    basis set group =>   3
Atom  18H    basis set group =>   4
Atom  19H    basis set group =>   4
Atom  20H    basis set group =>   4
Atom  21H    basis set group =>   4
Atom  22H    basis set group =>   4
Atom  23H    basis set group =>   4
Atom  24H    basis set group =>   4
Atom  25H    basis set group =>   4
Atom  26H    basis set group =>   4
Atom  27H    basis set group =>   4
Atom  28H    basis set group =>   4
Atom  29H    basis set group =>   4
[1739941547.178171] [ohm:857286:0]        ib_iface.c:1059 UCX  ERROR ibv_create_cq(cqe=256) failed: Connection timed out
[1739941547.188695] [ohm:857285:0]        ib_iface.c:1059 UCX  ERROR ibv_create_cq(cqe=256) failed: Connection timed out
[1739941547.195964] [ohm:857284:0]        ib_iface.c:1059 UCX  ERROR ibv_create_cq(cqe=256) failed: Connection timed out
[1739941547.211781] [ohm:857283:0]        ib_iface.c:1059 UCX  ERROR ibv_create_cq(cqe=256) failed: Connection timed out
[1739941547.228155] [ohm:857287:0]        ib_iface.c:1059 UCX  ERROR ibv_create_cq(cqe=256) failed: Connection timed out
[1739941547.231743] [ohm:857288:0]        ib_iface.c:1059 UCX  ERROR ibv_create_cq(cqe=256) failed: Connection timed out
[1739941547.242845] [ohm:857290:0]        ib_iface.c:1059 UCX  ERROR ibv_create_cq(cqe=256) failed: Connection timed out
[1739941547.244005] [ohm:857294:0]        ib_iface.c:1059 UCX  ERROR ibv_create_cq(cqe=256) failed: Connection timed out
[1739941547.283076] [ohm:857312:0]        ib_iface.c:1059 UCX  ERROR ibv_create_cq(cqe=256) failed: Connection timed out
[1739941547.303917] [ohm:857307:0]        ib_iface.c:1059 UCX  ERROR ibv_create_cq(cqe=256) failed: Connection timed out
[1739941547.304806] [ohm:857310:0]        ib_iface.c:1059 UCX  ERROR ibv_create_cq(cqe=256) failed: Connection timed out
[1739941547.305342] [ohm:857291:0]        ib_iface.c:1059 UCX  ERROR ibv_create_cq(cqe=256) failed: Connection timed out
[1739941547.305810] [ohm:857303:0]        ib_iface.c:1059 UCX  ERROR ibv_create_cq(cqe=256) failed: Connection timed out
[1739941547.309898] [ohm:857289:0]        ib_iface.c:1059 UCX  ERROR ibv_create_cq(cqe=256) failed: Connection timed out
[1739941547.311433] [ohm:857302:0]        ib_iface.c:1059 UCX  ERROR ibv_create_cq(cqe=256) failed: Connection timed out
[1739941547.315842] [ohm:857305:0]        ib_iface.c:1059 UCX  ERROR ibv_create_cq(cqe=256) failed: Connection timed out
[1739941547.324681] [ohm:857321:0]        ib_iface.c:1059 UCX  ERROR ibv_create_cq(cqe=256) failed: Connection timed out
[1739941547.336684] [ohm:857309:0]        ib_iface.c:1059 UCX  ERROR ibv_create_cq(cqe=256) failed: Connection timed out
[1739941547.338349] [ohm:857338:0]        ib_iface.c:1059 UCX  ERROR ibv_create_cq(cqe=256) failed: Connection timed out
[1739941547.340852] [ohm:857343:0]        ib_iface.c:1059 UCX  ERROR ibv_create_cq(cqe=256) failed: Connection timed out
[1739941547.353348] [ohm:857332:0]        ib_iface.c:1059 UCX  ERROR ibv_create_cq(cqe=256) failed: Connection timed out
[1739941547.370793] [ohm:857322:0]        ib_iface.c:1059 UCX  ERROR ibv_create_cq(cqe=256) failed: Connection timed out
[1739941547.375970] [ohm:857292:0]        ib_iface.c:1059 UCX  ERROR ibv_create_cq(cqe=256) failed: Connection timed out
[1739941547.377618] [ohm:857295:0]        ib_iface.c:1059 UCX  ERROR ibv_create_cq(cqe=256) failed: Connection timed out
[1739941547.386645] [ohm:857331:0]        ib_iface.c:1059 UCX  ERROR ibv_create_cq(cqe=256) failed: Connection timed out
[1739941547.394060] [ohm:857293:0]        ib_iface.c:1059 UCX  ERROR ibv_create_cq(cqe=256) failed: Connection timed out
[1739941547.396686] [ohm:857344:0]        ib_iface.c:1059 UCX  ERROR ibv_create_cq(cqe=256) failed: Connection timed out
[1739941547.400603] [ohm:857308:0]        ib_iface.c:1059 UCX  ERROR ibv_create_cq(cqe=256) failed: Connection timed out
[1739941547.406664] [ohm:857350:0]        ib_iface.c:1059 UCX  ERROR ibv_create_cq(cqe=256) failed: Connection timed out
[1739941547.411567] [ohm:857315:0]        ib_iface.c:1059 UCX  ERROR ibv_create_cq(cqe=256) failed: Connection timed out
[1739941547.418709] [ohm:857359:0]        ib_iface.c:1059 UCX  ERROR ibv_create_cq(cqe=256) failed: Connection timed out
[1739941547.429920] [ohm:857430:0]        ib_iface.c:1059 UCX  ERROR ibv_create_cq(cqe=256) failed: Connection timed out
[1739941547.431015] [ohm:857366:0]        ib_iface.c:1059 UCX  ERROR ibv_create_cq(cqe=256) failed: Connection timed out
[1739941547.431125] [ohm:857342:0]        ib_iface.c:1059 UCX  ERROR ibv_create_cq(cqe=256) failed: Connection timed out
[1739941547.443733] [ohm:857407:0]        ib_iface.c:1059 UCX  ERROR ibv_create_cq(cqe=256) failed: Connection timed out
[1739941547.444749] [ohm:857373:0]        ib_iface.c:1059 UCX  ERROR ibv_create_cq(cqe=256) failed: Connection timed out
[1739941547.453571] [ohm:857404:0]        ib_iface.c:1059 UCX  ERROR ibv_create_cq(cqe=256) failed: Connection timed out
[1739941547.454698] [ohm:857417:0]        ib_iface.c:1059 UCX  ERROR ibv_create_cq(cqe=256) failed: Connection timed out
[1739941547.458091] [ohm:857360:0]        ib_iface.c:1059 UCX  ERROR ibv_create_cq(cqe=256) failed: Connection timed out
[1739941547.461309] [ohm:857395:0]        ib_iface.c:1059 UCX  ERROR ibv_create_cq(cqe=256) failed: Connection timed out
[1739941547.461922] [ohm:857334:0]        ib_iface.c:1059 UCX  ERROR ibv_create_cq(cqe=256) failed: Connection timed out
[1739941547.469012] [ohm:857381:0]        ib_iface.c:1059 UCX  ERROR ibv_create_cq(cqe=256) failed: Connection timed out
[1739941547.477882] [ohm:857384:0]        ib_iface.c:1059 UCX  ERROR ibv_create_cq(cqe=256) failed: Connection timed out
[1739941547.485091] [ohm:857415:0]        ib_iface.c:1059 UCX  ERROR ibv_create_cq(cqe=256) failed: Connection timed out
[1739941547.490786] [ohm:857423:0]        ib_iface.c:1059 UCX  ERROR ibv_create_cq(cqe=256) failed: Connection timed out
[1739941547.494956] [ohm:857345:0]        ib_iface.c:1059 UCX  ERROR ibv_create_cq(cqe=256) failed: Connection timed out
[1739941547.499864] [ohm:857389:0]        ib_iface.c:1059 UCX  ERROR ibv_create_cq(cqe=256) failed: Connection timed out
[1739941547.500700] [ohm:857392:0]        ib_iface.c:1059 UCX  ERROR ibv_create_cq(cqe=256) failed: Connection timed out
[1739941547.503192] [ohm:857397:0]        ib_iface.c:1059 UCX  ERROR ibv_create_cq(cqe=256) failed: Connection timed out
[1739941547.505604] [ohm:857327:0]        ib_iface.c:1059 UCX  ERROR ibv_create_cq(cqe=256) failed: Connection timed out
[1739941547.505957] [ohm:857313:0]        ib_iface.c:1059 UCX  ERROR ibv_create_cq(cqe=256) failed: Connection timed out
[1739941547.508248] [ohm:857401:0]        ib_iface.c:1059 UCX  ERROR ibv_create_cq(cqe=256) failed: Connection timed out
[1739941547.513826] [ohm:857433:0]        ib_iface.c:1059 UCX  ERROR ibv_create_cq(cqe=256) failed: Connection timed out
[1739941547.519463] [ohm:857427:0]        ib_iface.c:1059 UCX  ERROR ibv_create_cq(cqe=256) failed: Connection timed out
[1739941547.519600] [ohm:857346:0]        ib_iface.c:1059 UCX  ERROR ibv_create_cq(cqe=256) failed: Connection timed out
[1739941547.522494] [ohm:857355:0]        ib_iface.c:1059 UCX  ERROR ibv_create_cq(cqe=256) failed: Connection timed out
[1739941547.522492] [ohm:857434:0]        ib_iface.c:1059 UCX  ERROR ibv_create_cq(cqe=256) failed: Connection timed out
[1739941547.523743] [ohm:857351:0]        ib_iface.c:1059 UCX  ERROR ibv_create_cq(cqe=256) failed: Connection timed out
[1739941547.523767] [ohm:857376:0]        ib_iface.c:1059 UCX  ERROR ibv_create_cq(cqe=256) failed: Connection timed out
[1739941547.524326] [ohm:857339:0]        ib_iface.c:1059 UCX  ERROR ibv_create_cq(cqe=256) failed: Connection timed out
[1739941547.524725] [ohm:857369:0]        ib_iface.c:1059 UCX  ERROR ibv_create_cq(cqe=256) failed: Connection timed out
[1739941547.524728] [ohm:857336:0]        ib_iface.c:1059 UCX  ERROR ibv_create_cq(cqe=256) failed: Connection timed out
[1739941547.526232] [ohm:857341:0]        ib_iface.c:1059 UCX  ERROR ibv_create_cq(cqe=256) failed: Connection timed out
[1739941547.526475] [ohm:857410:0]        ib_iface.c:1059 UCX  ERROR ibv_create_cq(cqe=256) failed: Connection timed out


           ************************************************************
           *        Program running with 64 parallel MPI-processes    *
           *              working on a common directory               *
           ************************************************************
------------------------------------------------------------------------------
                             ORCA STARTUP CALCULATIONS
                           -- RI-GTO INTEGRALS CHOSEN --
------------------------------------------------------------------------------
------------------------------------------------------------------------------
                   ___                                                        
                  /   \      - P O W E R E D   B Y -                         
                 /     \                                                     
                 |  |  |   _    _      __       _____    __    __             
                 |  |  |  | |  | |    /  \     |  _  \  |  |  /  |          
                  \  \/   | |  | |   /    \    | | | |  |  | /  /          
                 / \  \   | |__| |  /  /\  \   | |_| |  |  |/  /          
                |  |  |   |  __  | /  /__\  \  |    /   |      \           
                |  |  |   | |  | | |   __   |  |    \   |  |\   \          
                \     /   | |  | | |  |  |  |  | |\  \  |  | \   \       
                 \___/    |_|  |_| |__|  |__|  |_| \__\ |__|  \__/        
                                                                              
                      - O R C A' S   B I G   F R I E N D -                    
                                      &                                       
                       - I N T E G R A L  F E E D E R -                       
                                                                              
 v1 FN, 2020, v2 2021, v3 2022-2024                                           
------------------------------------------------------------------------------


----------------------
SHARK INTEGRAL PACKAGE
----------------------

Number of atoms                             ...     30
Number of basis functions                   ...    882
Number of shells                            ...    322
Maximum angular momentum                    ...      3
Integral batch strategy                     ... SHARK/LIBINT Hybrid
RI-J (if used) integral strategy            ... SPLIT-RIJ (Revised 2003 algorithm where possible)
Printlevel                                  ...      1
Contraction scheme used                     ... SEGMENTED contraction
Prescreening option                         ... SCHWARTZ
   Thresh                                   ... 2.500e-11
   Tcut                                     ... 2.500e-12
   Tpresel                                  ... 2.500e-12 
Coulomb Range Separation                    ... NOT USED
Exchange Range Separation                   ... Long Range
   Mu parameter                             ... 3.000e-01
   Scaling (regular/separated)              ... 1.500e-01 8.500e-01
Multipole approximations                    ... NOT USED
Finite Nucleus Model                        ... NOT USED
CABS basis                                  ... NOT available
Auxiliary Coulomb fitting basis             ... AVAILABLE
   # of basis functions in Aux-J            ...   1014
   # of shells in Aux-J                     ...    330
   Maximum angular momentum in Aux-J        ...      4
Auxiliary J/K fitting basis                 ... NOT available
Auxiliary Correlation fitting basis         ... NOT available
Auxiliary 'external' fitting basis          ... NOT available

Checking pre-screening integrals            ... done (  0.0 sec) Dimension = 322
Check shell pair data                       ... done (  0.0 sec)
Shell pair information
Shell pair cut-off parameter TPreSel        ...   2.5e-12
Total number of shell pairs                 ...     52003
Shell pairs after pre-screening             ...     44331
Total number of primitive shell pairs       ...    129718
Primitive shell pairs kept                  ...     82454
          la=0 lb=0:   8579 shell pairs
          la=1 lb=0:  11754 shell pairs
          la=1 lb=1:   4070 shell pairs
          la=2 lb=0:   7981 shell pairs
          la=2 lb=1:   5527 shell pairs
          la=2 lb=2:   1897 shell pairs
          la=3 lb=0:   2001 shell pairs
          la=3 lb=1:   1422 shell pairs
          la=3 lb=2:    971 shell pairs
          la=3 lb=3:    129 shell pairs

Calculating one electron integrals          ... done (  0.2 sec)
Calculating RI/J V-Matrix + Cholesky decomp.... done (  0.0 sec)
Calculating Nuclear repulsion               ... done (  0.0 sec) ENN=   1408.832539549440 Eh

Diagonalization of the overlap matrix:
Smallest eigenvalue                        ... 6.631e-07
Time for diagonalization                   ...    0.124 sec
Threshold for overlap eigenvalues          ... 1.000e-07
Number of eigenvalues below threshold      ... 0

IMPORTANT:
Smallest eigenvalue of S below the DiffSThresh (1.000e-06) while
Thresh>1e-12 and/or TCut>1e-13! In order to avoid SCF convergence issues,
Thresh will be set to at least 1e-12 and TCut to at least 1e-13.
This can be turned off by adding %SCF DiffSThresh -1 END to the input.

Time for construction of square roots      ...    0.133 sec
Total time needed                          ...    0.273 sec

-------------------
DFT GRID GENERATION
-------------------

General Integration Accuracy     IntAcc      ... 4.388
Radial Grid Type                 RadialGrid  ... OptM3 with GC (2021)
Angular Grid (max. ang.)         AngularGrid ... 4 (Lebedev-302)
Angular grid pruning method      GridPruning ... 4 (adaptive)
Weight generation scheme         WeightScheme... mBecke (2022)
Basis function cutoff            BFCut       ... 1.0000e-11
Integration weight cutoff        WCut        ... 1.0000e-14
Partially contracted basis set               ... off
Rotationally invariant grid construction     ... off
Angular grids for H and He will be reduced by one unit
Diffuse basis detected: some atoms will have their outermost
                        angular grid increased by 1.

Total number of grid points                  ...   152402
Total number of batches                      ...     2395
Average number of points per batch           ...       63
Average number of grid points per atom       ...     5080

--------------------
COSX GRID GENERATION
--------------------

GRIDX 1
-------
General Integration Accuracy     IntAcc      ... 3.816
Radial Grid Type                 RadialGrid  ... OptM3 with GC (2021)
Angular Grid (max. ang.)         AngularGrid ... 1 (Lebedev-50)
Angular grid pruning method      GridPruning ... 4 (adaptive)
Weight generation scheme         WeightScheme... mBecke (2022)
Basis function cutoff            BFCut       ... 1.0000e-11
Integration weight cutoff        WCut        ... 1.0000e-14
Partially contracted basis set               ... on
Rotationally invariant grid construction     ... off
Angular grids for H and He will be reduced by one unit
Diffuse basis detected: some atoms will have their outermost
                        angular grid increased by 1.

Total number of grid points                  ...    19078
Total number of batches                      ...      167
Average number of points per batch           ...      114
Average number of grid points per atom       ...      636
UseSFitting                                  ... on

GRIDX 2
-------
General Integration Accuracy     IntAcc      ... 4.020
Radial Grid Type                 RadialGrid  ... OptM3 with GC (2021)
Angular Grid (max. ang.)         AngularGrid ... 2 (Lebedev-110)
Angular grid pruning method      GridPruning ... 4 (adaptive)
Weight generation scheme         WeightScheme... mBecke (2022)
Basis function cutoff            BFCut       ... 1.0000e-11
Integration weight cutoff        WCut        ... 1.0000e-14
Partially contracted basis set               ... on
Rotationally invariant grid construction     ... off
Angular grids for H and He will be reduced by one unit
Diffuse basis detected: some atoms will have their outermost
                        angular grid increased by 1.

Total number of grid points                  ...    46130
Total number of batches                      ...      375
Average number of points per batch           ...      123
Average number of grid points per atom       ...     1538
UseSFitting                                  ... on

GRIDX 3
-------
General Integration Accuracy     IntAcc      ... 4.338
Radial Grid Type                 RadialGrid  ... OptM3 with GC (2021)
Angular Grid (max. ang.)         AngularGrid ... 3 (Lebedev-194)
Angular grid pruning method      GridPruning ... 4 (adaptive)
Weight generation scheme         WeightScheme... mBecke (2022)
Basis function cutoff            BFCut       ... 1.0000e-11
Integration weight cutoff        WCut        ... 1.0000e-14
Partially contracted basis set               ... on
Rotationally invariant grid construction     ... off
Angular grids for H and He will be reduced by one unit
Diffuse basis detected: some atoms will have their outermost
                        angular grid increased by 1.

Total number of grid points                  ...   101535
Total number of batches                      ...      809
Average number of points per batch           ...      125
Average number of grid points per atom       ...     3384
UseSFitting                                  ... on
Initializing property integral containers    ... done (  0.0 sec)

SHARK setup successfully completed in   4.1 seconds

Maximum memory used throughout the entire STARTUP-calculation: 79.1 MB
[1739941553.456242] [ohm:857643:0]        ib_iface.c:1059 UCX  ERROR ibv_create_cq(cqe=256) failed: Connection timed out
[1739941553.457050] [ohm:857641:0]        ib_iface.c:1059 UCX  ERROR ibv_create_cq(cqe=256) failed: Connection timed out
[1739941553.482590] [ohm:857635:0]        ib_iface.c:1059 UCX  ERROR ibv_create_cq(cqe=256) failed: Connection timed out
[1739941553.484601] [ohm:857644:0]        ib_iface.c:1059 UCX  ERROR ibv_create_cq(cqe=256) failed: Connection timed out
[1739941553.488912] [ohm:857636:0]        ib_iface.c:1059 UCX  ERROR ibv_create_cq(cqe=256) failed: Connection timed out
[1739941553.491529] [ohm:857637:0]        ib_iface.c:1059 UCX  ERROR ibv_create_cq(cqe=256) failed: Connection timed out
[1739941553.496885] [ohm:857645:0]        ib_iface.c:1059 UCX  ERROR ibv_create_cq(cqe=256) failed: Connection timed out
[1739941553.499409] [ohm:857642:0]        ib_iface.c:1059 UCX  ERROR ibv_create_cq(cqe=256) failed: Connection timed out
[1739941553.500992] [ohm:857640:0]        ib_iface.c:1059 UCX  ERROR ibv_create_cq(cqe=256) failed: Connection timed out
[1739941553.507685] [ohm:857638:0]        ib_iface.c:1059 UCX  ERROR ibv_create_cq(cqe=256) failed: Connection timed out
[1739941553.528997] [ohm:857725:0]        ib_iface.c:1059 UCX  ERROR ibv_create_cq(cqe=256) failed: Connection timed out
[1739941553.538186] [ohm:857650:0]        ib_iface.c:1059 UCX  ERROR ibv_create_cq(cqe=256) failed: Connection timed out
[1739941553.543357] [ohm:857647:0]        ib_iface.c:1059 UCX  ERROR ibv_create_cq(cqe=256) failed: Connection timed out
[1739941553.551004] [ohm:857682:0]        ib_iface.c:1059 UCX  ERROR ibv_create_cq(cqe=256) failed: Connection timed out
[1739941553.560989] [ohm:857655:0]        ib_iface.c:1059 UCX  ERROR ibv_create_cq(cqe=256) failed: Connection timed out
[1739941553.564249] [ohm:857654:0]        ib_iface.c:1059 UCX  ERROR ibv_create_cq(cqe=256) failed: Connection timed out
[1739941553.601690] [ohm:857731:0]        ib_iface.c:1059 UCX  ERROR ibv_create_cq(cqe=256) failed: Connection timed out
[1739941553.609132] [ohm:857712:0]        ib_iface.c:1059 UCX  ERROR ibv_create_cq(cqe=256) failed: Connection timed out
[1739941553.615140] [ohm:857667:0]        ib_iface.c:1059 UCX  ERROR ibv_create_cq(cqe=256) failed: Connection timed out
[1739941553.631201] [ohm:857649:0]        ib_iface.c:1059 UCX  ERROR ibv_create_cq(cqe=256) failed: Connection timed out
[1739941553.636235] [ohm:857639:0]        ib_iface.c:1059 UCX  ERROR ibv_create_cq(cqe=256) failed: Connection timed out
[1739941553.647907] [ohm:857663:0]        ib_iface.c:1059 UCX  ERROR ibv_create_cq(cqe=256) failed: Connection timed out
[1739941553.658551] [ohm:857651:0]        ib_iface.c:1059 UCX  ERROR ibv_create_cq(cqe=256) failed: Connection timed out
[1739941553.663262] [ohm:857689:0]        ib_iface.c:1059 UCX  ERROR ibv_create_cq(cqe=256) failed: Connection timed out
[1739941553.669992] [ohm:857687:0]        ib_iface.c:1059 UCX  ERROR ibv_create_cq(cqe=256) failed: Connection timed out
[1739941553.676055] [ohm:857646:0]        ib_iface.c:1059 UCX  ERROR ibv_create_cq(cqe=256) failed: Connection timed out
[1739941553.681979] [ohm:857723:0]        ib_iface.c:1059 UCX  ERROR ibv_create_cq(cqe=256) failed: Connection timed out
[1739941553.691373] [ohm:857719:0]        ib_iface.c:1059 UCX  ERROR ibv_create_cq(cqe=256) failed: Connection timed out
[1739941553.691470] [ohm:857729:0]        ib_iface.c:1059 UCX  ERROR ibv_create_cq(cqe=256) failed: Connection timed out
[1739941553.691640] [ohm:857653:0]        ib_iface.c:1059 UCX  ERROR ibv_create_cq(cqe=256) failed: Connection timed out
[1739941553.692516] [ohm:857760:0]        ib_iface.c:1059 UCX  ERROR ibv_create_cq(cqe=256) failed: Connection timed out
[1739941553.693771] [ohm:857701:0]        ib_iface.c:1059 UCX  ERROR ibv_create_cq(cqe=256) failed: Connection timed out
[1739941553.694235] [ohm:857717:0]        ib_iface.c:1059 UCX  ERROR ibv_create_cq(cqe=256) failed: Connection timed out
[1739941553.694702] [ohm:857660:0]        ib_iface.c:1059 UCX  ERROR ibv_create_cq(cqe=256) failed: Connection timed out
[1739941553.695373] [ohm:857658:0]        ib_iface.c:1059 UCX  ERROR ibv_create_cq(cqe=256) failed: Connection timed out
[1739941553.695837] [ohm:857734:0]        ib_iface.c:1059 UCX  ERROR ibv_create_cq(cqe=256) failed: Connection timed out
[1739941553.699702] [ohm:857770:0]        ib_iface.c:1059 UCX  ERROR ibv_create_cq(cqe=256) failed: Connection timed out
[1739941553.700142] [ohm:857656:0]        ib_iface.c:1059 UCX  ERROR ibv_create_cq(cqe=256) failed: Connection timed out
[1739941553.710213] [ohm:857745:0]        ib_iface.c:1059 UCX  ERROR ibv_create_cq(cqe=256) failed: Connection timed out
[1739941553.716083] [ohm:857741:0]        ib_iface.c:1059 UCX  ERROR ibv_create_cq(cqe=256) failed: Connection timed out
[1739941553.716222] [ohm:857676:0]        ib_iface.c:1059 UCX  ERROR ibv_create_cq(cqe=256) failed: Connection timed out
[1739941553.720993] [ohm:857657:0]        ib_iface.c:1059 UCX  ERROR ibv_create_cq(cqe=256) failed: Connection timed out
[1739941553.727238] [ohm:857748:0]        ib_iface.c:1059 UCX  ERROR ibv_create_cq(cqe=256) failed: Connection timed out
[1739941553.730083] [ohm:857766:0]        ib_iface.c:1059 UCX  ERROR ibv_create_cq(cqe=256) failed: Connection timed out
[1739941553.736860] [ohm:857758:0]        ib_iface.c:1059 UCX  ERROR ibv_create_cq(cqe=256) failed: Connection timed out
[1739941553.738233] [ohm:857783:0]        ib_iface.c:1059 UCX  ERROR ibv_create_cq(cqe=256) failed: Connection timed out
[1739941553.739016] [ohm:857698:0]        ib_iface.c:1059 UCX  ERROR ibv_create_cq(cqe=256) failed: Connection timed out
[1739941553.744991] [ohm:857753:0]        ib_iface.c:1059 UCX  ERROR ibv_create_cq(cqe=256) failed: Connection timed out
[1739941553.754153] [ohm:857751:0]        ib_iface.c:1059 UCX  ERROR ibv_create_cq(cqe=256) failed: Connection timed out
[1739941553.765725] [ohm:857768:0]        ib_iface.c:1059 UCX  ERROR ibv_create_cq(cqe=256) failed: Connection timed out
[1739941553.766268] [ohm:857690:0]        ib_iface.c:1059 UCX  ERROR ibv_create_cq(cqe=256) failed: Connection timed out
[1739941553.774337] [ohm:857648:0]        ib_iface.c:1059 UCX  ERROR ibv_create_cq(cqe=256) failed: Connection timed out
[1739941553.778984] [ohm:857684:0]        ib_iface.c:1059 UCX  ERROR ibv_create_cq(cqe=256) failed: Connection timed out
[1739941553.779061] [ohm:857652:0]        ib_iface.c:1059 UCX  ERROR ibv_create_cq(cqe=256) failed: Connection timed out
[1739941553.779739] [ohm:857695:0]        ib_iface.c:1059 UCX  ERROR ibv_create_cq(cqe=256) failed: Connection timed out
[1739941553.779826] [ohm:857665:0]        ib_iface.c:1059 UCX  ERROR ibv_create_cq(cqe=256) failed: Connection timed out
[1739941553.779925] [ohm:857774:0]        ib_iface.c:1059 UCX  ERROR ibv_create_cq(cqe=256) failed: Connection timed out
[1739941553.780049] [ohm:857661:0]        ib_iface.c:1059 UCX  ERROR ibv_create_cq(cqe=256) failed: Connection timed out
[1739941553.780482] [ohm:857710:0]        ib_iface.c:1059 UCX  ERROR ibv_create_cq(cqe=256) failed: Connection timed out
[1739941553.780484] [ohm:857737:0]        ib_iface.c:1059 UCX  ERROR ibv_create_cq(cqe=256) failed: Connection timed out
[1739941553.780903] [ohm:857704:0]        ib_iface.c:1059 UCX  ERROR ibv_create_cq(cqe=256) failed: Connection timed out
[1739941553.784163] [ohm:857787:0]        ib_iface.c:1059 UCX  ERROR ibv_create_cq(cqe=256) failed: Connection timed out
[1739941553.784244] [ohm:857673:0]        ib_iface.c:1059 UCX  ERROR ibv_create_cq(cqe=256) failed: Connection timed out
[1739941553.784853] [ohm:857659:0]        ib_iface.c:1059 UCX  ERROR ibv_create_cq(cqe=256) failed: Connection timed out


           ************************************************************
           *        Program running with 64 parallel MPI-processes    *
           *              working on a common directory               *
           ************************************************************
-------------------------------------------------------------------------------
                                 ORCA GUESS
                   Start orbitals & Density for SCF / CASSCF
-------------------------------------------------------------------------------

------------
SCF SETTINGS
------------
Hamiltonian:
 Density Functional     Method          .... DFT(GTOs)
  Functional kind                       .... Exchange-Correlation
  Functional name                       .... wB97M-V exchange-correlation functional
  Functional family                     .... Hybrid MGGA
  Functional refs                              
    [ 0] N. Mardirossian and M. Head-Gordon.,  J. Chem. Phys. 144, 214110 (2016), doi: 10.1063/1.4952647
  Fraction of HF Exchange (short range) .... 0.1500
  Fraction of HF Exchange (long range)  .... 1.0000
  Range separation parameter mu         .... 0.3000
  Functional external parameters        .... 17
    Parameter  0 _cx00      =  8.500000e-01 : u^00 coefficient for exchange
    Parameter  1 _cx01      =  1.007000e+00 : u^01 coefficient for exchange
    Parameter  2 _cx10      =  2.590000e-01 : u^10 coefficient for exchange
    Parameter  3 _css00     =  4.430000e-01 : u^00 coefficient for same-spin correlation
    Parameter  4 _css04     = -1.437000e+00 : u^04 coefficient for same-spin correlation
    Parameter  5 _css10     = -4.535000e+00 : u^10 coefficient for same-spin correlation
    Parameter  6 _css20     = -3.390000e+00 : u^20 coefficient for same-spin correlation
    Parameter  7 _css43     =  4.278000e+00 : u^43 coefficient for same-spin correlation
    Parameter  8 _cos00     =  1.000000e+00 : u^00 coefficient for opposite-spin correlation
    Parameter  9 _cos10     =  1.358000e+00 : u^10 coefficient for opposite-spin correlation
    Parameter 10 _cos20     =  2.924000e+00 : u^20 coefficient for opposite-spin correlation
    Parameter 11 _cos21     = -8.812000e+00 : u^21 coefficient for opposite-spin correlation
    Parameter 12 _cos60     = -1.390000e+00 : u^60 coefficient for opposite-spin correlation
    Parameter 13 _cos61     =  9.142000e+00 : u^61 coefficient for opposite-spin correlation
    Parameter 14 _alpha     =  1.000000e+00 : fraction of HF exchange
    Parameter 15 _beta      = -8.500000e-01 : fraction of short-range exchange
    Parameter 16 _omega     =  3.000000e-01 : range-separation constant
 Long-range corrected/Screened/Range-Separated Hybrid DFT is turned on
   Amount of maximum screened exact exchange              ....  0.850000
   Range separation parameter mu (erf(mu*r12)/r12)        ....  0.300000
 RI-approximation to the Coulomb term is turned on
   Number of AuxJ basis functions       .... 1014
   RIJ-COSX (HFX calculated with COS-X)).... on


General Settings:
 Integral files         IntName         .... orca
 Hartree-Fock type      HFTyp           .... UHF
 Total Charge           Charge          ....    0
 Multiplicity           Mult            ....    3
 Number of Electrons    NEL             ....  132
 Basis Dimension        Dim             ....  882
 Nuclear Repulsion      ENuc            ....   1408.8325395494 Eh

Convergence Acceleration:
 AO-DIIS                CNVDIIS         .... on
   Start iteration      DIISMaxIt       ....    12
   Startup error        DIISStart       ....  0.200000
   # of expansion vecs  DIISMaxEq       ....     5
   Bias factor          DIISBfac        ....   1.050
   Max. coefficient     DIISMaxC        ....  10.000
 MO-DIIS                CNVKDIIS        .... off
 Trust-Rad. Augm. Hess. CNVTRAH         .... auto
   Auto Start mean grad. ratio tolernc. ....  1.125000
   Auto Start start iteration           ....    50
   Auto Start num. interpolation iter.  ....    10
   Max. Number of Micro iterations      ....    24
   Max. Number of Macro iterations      .... Maxiter - #DIIS iter
   Number of Davidson start vectors     ....     2
   Converg. threshold    (grad. norm)   ....   1.000e-05
   Grad. Scal. Fac. for Micro threshold ....   0.100
   Minimum threshold for Micro iter.    ....   1.000e-02
   NR start threshold (gradient norm)   ....   1.000e-04
   Initial trust radius                 ....   0.400
   Minimum AH scaling param. (alpha)    ....   1.000
   Maximum AH scaling param. (alpha)    .... 1000.000
   Quad. conv. algorithm                .... NR
   White noise on init. David. guess    .... on
   Maximum white noise                  ....   0.010
   Pseudo random numbers                .... off
   Inactive MOs                         .... canonical
   Orbital update algorithm             .... Taylor
   Preconditioner                       .... Diag
   Full preconditioner red. dimension   ....   250
 SOSCF                  CNVSOSCF        .... on
   Start iteration      SOSCFMaxIt      ....   150
   Startup grad/error   SOSCFStart      ....  0.003300
   Hessian update       SOSCFHessUp     .... L-BFGS
 Level Shifting         CNVShift        .... on
   Level shift para.    LevelShift      ....    0.2500
   Turn off err/grad.   ShiftErr        ....    0.0010
 Zerner damping         CNVZerner       .... off
 Static damping         CNVDamp         .... on
   Fraction old density DampFac         ....    0.7000
   Max. Damping (<1)    DampMax         ....    0.9800
   Min. Damping (>=0)   DampMin         ....    0.0000
   Turn off err/grad.   DampErr         ....    0.1000

SCF Procedure:
 Maximum # iterations   MaxIter         ....   125
 SCF integral mode      SCFMode         .... Direct
   Integral package                     .... SHARK and LIBINT hybrid scheme
 Reset frequency        DirectResetFreq ....    20
 Integral Threshold     Thresh          ....  1.000e-12 Eh
 Primitive CutOff       TCut            ....  1.000e-13 Eh

Convergence Tolerance:
 Convergence Check Mode ConvCheckMode   .... Total+1el-Energy
 Convergence forced     ConvForced      .... 1
 Energy Change          TolE            ....  1.000e-08 Eh
 1-El. energy change                    ....  1.000e-05 Eh
 Orbital Gradient       TolG            ....  1.000e-05
 Orbital Rotation angle TolX            ....  1.000e-05
 DIIS Error             TolErr          ....  5.000e-07

------------------------------
INITIAL GUESS: MODEL POTENTIAL
------------------------------
Loading Hartree-Fock densities                     ... done
Calculating cut-offs                               ... done
Initializing the effective Hamiltonian             ... done
Setting up the integral package (SHARK)            ... done
Starting the Coulomb interaction                   ... done (   0.1 sec)
Making the grid                                    ... done (   0.3 sec)
Mapping shells                                     ... done
Starting the XC term evaluation                    ... done (   0.1 sec)
  promolecular density results
     # of electrons  =    131.979972219
     EX              =   -113.507252854
     EC              =     -4.480204988
     EX+EC           =   -117.987457842
Transforming the Hamiltonian                       ... done (   0.1 sec)
Diagonalizing the Hamiltonian                      ... done (   0.1 sec)
Back transforming the eigenvectors                 ... done (   0.1 sec)
Now organizing SCF variables                       ... done
                      ------------------
                      INITIAL GUESS DONE (   1.1 sec)
                      ------------------
             **** ENERGY FILE WAS UPDATED (orca.en.tmp) ****
Finished Guess after   3.6 sec
Maximum memory used throughout the entire GUESS-calculation: 71.7 MB
[1739941557.656698] [ohm:857991:0]        ib_iface.c:1059 UCX  ERROR ibv_create_cq(cqe=256) failed: Connection timed out
[1739941557.657639] [ohm:857992:0]        ib_iface.c:1059 UCX  ERROR ibv_create_cq(cqe=256) failed: Connection timed out
[1739941557.657988] [ohm:857998:0]        ib_iface.c:1059 UCX  ERROR ibv_create_cq(cqe=256) failed: Connection timed out
[1739941557.662062] [ohm:857994:0]        ib_iface.c:1059 UCX  ERROR ibv_create_cq(cqe=256) failed: Connection timed out
[1739941557.681568] [ohm:857996:0]        ib_iface.c:1059 UCX  ERROR ibv_create_cq(cqe=256) failed: Connection timed out
[1739941557.682557] [ohm:857993:0]        ib_iface.c:1059 UCX  ERROR ibv_create_cq(cqe=256) failed: Connection timed out
[1739941557.683956] [ohm:858000:0]        ib_iface.c:1059 UCX  ERROR ibv_create_cq(cqe=256) failed: Connection timed out
[1739941557.717845] [ohm:858005:0]        ib_iface.c:1059 UCX  ERROR ibv_create_cq(cqe=256) failed: Connection timed out
[1739941557.720239] [ohm:858001:0]        ib_iface.c:1059 UCX  ERROR ibv_create_cq(cqe=256) failed: Connection timed out
[1739941557.730488] [ohm:857995:0]        ib_iface.c:1059 UCX  ERROR ibv_create_cq(cqe=256) failed: Connection timed out
[1739941557.741698] [ohm:858003:0]        ib_iface.c:1059 UCX  ERROR ibv_create_cq(cqe=256) failed: Connection timed out
[1739941557.756505] [ohm:858007:0]        ib_iface.c:1059 UCX  ERROR ibv_create_cq(cqe=256) failed: Connection timed out
[1739941557.776283] [ohm:858018:0]        ib_iface.c:1059 UCX  ERROR ibv_create_cq(cqe=256) failed: Connection timed out
[1739941557.779196] [ohm:858011:0]        ib_iface.c:1059 UCX  ERROR ibv_create_cq(cqe=256) failed: Connection timed out
[1739941557.791758] [ohm:858104:0]        ib_iface.c:1059 UCX  ERROR ibv_create_cq(cqe=256) failed: Connection timed out
[1739941557.796605] [ohm:858006:0]        ib_iface.c:1059 UCX  ERROR ibv_create_cq(cqe=256) failed: Connection timed out
[1739941557.797121] [ohm:858132:0]        ib_iface.c:1059 UCX  ERROR ibv_create_cq(cqe=256) failed: Connection timed out
[1739941557.798879] [ohm:858027:0]        ib_iface.c:1059 UCX  ERROR ibv_create_cq(cqe=256) failed: Connection timed out
[1739941557.802812] [ohm:858120:0]        ib_iface.c:1059 UCX  ERROR ibv_create_cq(cqe=256) failed: Connection timed out
[1739941557.812019] [ohm:857997:0]        ib_iface.c:1059 UCX  ERROR ibv_create_cq(cqe=256) failed: Connection timed out
[1739941557.817192] [ohm:858008:0]        ib_iface.c:1059 UCX  ERROR ibv_create_cq(cqe=256) failed: Connection timed out
[1739941557.842616] [ohm:858042:0]        ib_iface.c:1059 UCX  ERROR ibv_create_cq(cqe=256) failed: Connection timed out
[1739941557.848877] [ohm:858009:0]        ib_iface.c:1059 UCX  ERROR ibv_create_cq(cqe=256) failed: Connection timed out
[1739941557.850247] [ohm:858111:0]        ib_iface.c:1059 UCX  ERROR ibv_create_cq(cqe=256) failed: Connection timed out
[1739941557.860618] [ohm:858092:0]        ib_iface.c:1059 UCX  ERROR ibv_create_cq(cqe=256) failed: Connection timed out
[1739941557.863091] [ohm:858016:0]        ib_iface.c:1059 UCX  ERROR ibv_create_cq(cqe=256) failed: Connection timed out
[1739941557.865310] [ohm:858013:0]        ib_iface.c:1059 UCX  ERROR ibv_create_cq(cqe=256) failed: Connection timed out
[1739941557.866550] [ohm:858115:0]        ib_iface.c:1059 UCX  ERROR ibv_create_cq(cqe=256) failed: Connection timed out
[1739941557.866727] [ohm:858021:0]        ib_iface.c:1059 UCX  ERROR ibv_create_cq(cqe=256) failed: Connection timed out
[1739941557.876645] [ohm:858034:0]        ib_iface.c:1059 UCX  ERROR ibv_create_cq(cqe=256) failed: Connection timed out
[1739941557.876881] [ohm:858125:0]        ib_iface.c:1059 UCX  ERROR ibv_create_cq(cqe=256) failed: Connection timed out
[1739941557.881023] [ohm:858024:0]        ib_iface.c:1059 UCX  ERROR ibv_create_cq(cqe=256) failed: Connection timed out
[1739941557.881376] [ohm:858010:0]        ib_iface.c:1059 UCX  ERROR ibv_create_cq(cqe=256) failed: Connection timed out
[1739941557.882702] [ohm:858065:0]        ib_iface.c:1059 UCX  ERROR ibv_create_cq(cqe=256) failed: Connection timed out
[1739941557.890813] [ohm:858062:0]        ib_iface.c:1059 UCX  ERROR ibv_create_cq(cqe=256) failed: Connection timed out
[1739941557.891695] [ohm:858081:0]        ib_iface.c:1059 UCX  ERROR ibv_create_cq(cqe=256) failed: Connection timed out
[1739941557.893880] [ohm:858103:0]        ib_iface.c:1059 UCX  ERROR ibv_create_cq(cqe=256) failed: Connection timed out
[1739941557.919741] [ohm:858040:0]        ib_iface.c:1059 UCX  ERROR ibv_create_cq(cqe=256) failed: Connection timed out
[1739941557.933311] [ohm:858119:0]        ib_iface.c:1059 UCX  ERROR ibv_create_cq(cqe=256) failed: Connection timed out
[1739941557.934067] [ohm:858046:0]        ib_iface.c:1059 UCX  ERROR ibv_create_cq(cqe=256) failed: Connection timed out
[1739941557.935874] [ohm:858083:0]        ib_iface.c:1059 UCX  ERROR ibv_create_cq(cqe=256) failed: Connection timed out
[1739941557.935887] [ohm:858015:0]        ib_iface.c:1059 UCX  ERROR ibv_create_cq(cqe=256) failed: Connection timed out
[1739941557.939718] [ohm:858116:0]        ib_iface.c:1059 UCX  ERROR ibv_create_cq(cqe=256) failed: Connection timed out
[1739941557.941648] [ohm:858076:0]        ib_iface.c:1059 UCX  ERROR ibv_create_cq(cqe=256) failed: Connection timed out
[1739941557.945815] [ohm:857999:0]        ib_iface.c:1059 UCX  ERROR ibv_create_cq(cqe=256) failed: Connection timed out
[1739941557.959048] [ohm:858084:0]        ib_iface.c:1059 UCX  ERROR ibv_create_cq(cqe=256) failed: Connection timed out
[1739941557.961776] [ohm:858057:0]        ib_iface.c:1059 UCX  ERROR ibv_create_cq(cqe=256) failed: Connection timed out
[1739941557.962064] [ohm:858014:0]        ib_iface.c:1059 UCX  ERROR ibv_create_cq(cqe=256) failed: Connection timed out
[1739941557.962044] [ohm:858095:0]        ib_iface.c:1059 UCX  ERROR ibv_create_cq(cqe=256) failed: Connection timed out
[1739941557.962789] [ohm:858099:0]        ib_iface.c:1059 UCX  ERROR ibv_create_cq(cqe=256) failed: Connection timed out
[1739941557.963193] [ohm:858089:0]        ib_iface.c:1059 UCX  ERROR ibv_create_cq(cqe=256) failed: Connection timed out
[1739941557.967138] [ohm:858049:0]        ib_iface.c:1059 UCX  ERROR ibv_create_cq(cqe=256) failed: Connection timed out
[1739941557.974800] [ohm:858131:0]        ib_iface.c:1059 UCX  ERROR ibv_create_cq(cqe=256) failed: Connection timed out
[1739941557.974803] [ohm:858075:0]        ib_iface.c:1059 UCX  ERROR ibv_create_cq(cqe=256) failed: Connection timed out
[1739941557.974834] [ohm:858012:0]        ib_iface.c:1059 UCX  ERROR ibv_create_cq(cqe=256) failed: Connection timed out
[1739941557.979150] [ohm:858020:0]        ib_iface.c:1059 UCX  ERROR ibv_create_cq(cqe=256) failed: Connection timed out
[1739941557.980021] [ohm:858072:0]        ib_iface.c:1059 UCX  ERROR ibv_create_cq(cqe=256) failed: Connection timed out
[1739941557.980617] [ohm:858004:0]        ib_iface.c:1059 UCX  ERROR ibv_create_cq(cqe=256) failed: Connection timed out
[1739941557.981941] [ohm:858036:0]        ib_iface.c:1059 UCX  ERROR ibv_create_cq(cqe=256) failed: Connection timed out
[1739941557.982761] [ohm:858054:0]        ib_iface.c:1059 UCX  ERROR ibv_create_cq(cqe=256) failed: Connection timed out
[1739941557.984874] [ohm:858017:0]        ib_iface.c:1059 UCX  ERROR ibv_create_cq(cqe=256) failed: Connection timed out
[1739941557.984913] [ohm:858002:0]        ib_iface.c:1059 UCX  ERROR ibv_create_cq(cqe=256) failed: Connection timed out
[1739941557.985308] [ohm:858112:0]        ib_iface.c:1059 UCX  ERROR ibv_create_cq(cqe=256) failed: Connection timed out
[1739941557.986280] [ohm:858124:0]        ib_iface.c:1059 UCX  ERROR ibv_create_cq(cqe=256) failed: Connection timed out


           ************************************************************
           *        Program running with 64 parallel MPI-processes    *
           *              working on a common directory               *
           ************************************************************

-------------------------------------------------------------------------------------------
                                      ORCA LEAN-SCF
                              memory conserving SCF solver
-------------------------------------------------------------------------------------------

----------------------------------------D-I-I-S--------------------------------------------
Iteration    Energy (Eh)           Delta-E    RMSDP     MaxDP     DIISErr   Damp  Time(sec)
-------------------------------------------------------------------------------------------
               ***  Starting incremental Fock matrix formation  ***
    1    -908.0919916269824625     0.00e+00  1.41e-03  2.12e-01  1.50e-01  0.700   7.6
    2    -908.3628871221756071    -2.71e-01  1.13e-03  1.53e-01  7.13e-02  0.700   6.5
                               ***Turning on AO-DIIS***
    3    -908.4806303383322756    -1.18e-01  7.85e-04  1.02e-01  2.72e-02  0.700   5.7
    4    -908.5534803683792688    -7.29e-02  1.86e-03  2.21e-01  1.82e-02  0.000   5.6
    5    -908.7177007983534622    -1.64e-01  2.28e-04  5.49e-02  3.90e-03  0.000   5.8
                              *** Initializing SOSCF ***
---------------------------------------S-O-S-C-F--------------------------------------
Iteration    Energy (Eh)           Delta-E    RMSDP     MaxDP     MaxGrad    Time(sec)
--------------------------------------------------------------------------------------
    6    -908.7190245842800778    -1.32e-03  1.14e-04  2.77e-02  2.34e-03     6.5
               *** Restarting incremental Fock matrix formation ***
    7    -908.7196192740705101    -5.95e-04  2.46e-04  3.33e-02  2.77e-03     7.3
    8    -908.7199719146599364    -3.53e-04  2.18e-04  4.56e-02  1.37e-03     6.5
    9    -908.7200828563761661    -1.11e-04  1.28e-04  1.78e-02  7.66e-04     6.5
   10    -908.7201445926477845    -6.17e-05  2.61e-05  7.72e-03  2.81e-04     6.4
   11    -908.7201516799980254    -7.09e-06  8.19e-06  1.50e-03  1.33e-04     6.2
   12    -908.7201532305191449    -1.55e-06  4.43e-06  1.11e-03  1.35e-04     5.9
   13    -908.7201540400894828    -8.10e-07  4.03e-06  6.71e-04  2.82e-05     5.8
   14    -908.7201541861074929    -1.46e-07  1.74e-06  4.94e-04  1.82e-05     5.8
   15    -908.7201542417485598    -5.56e-08  1.20e-06  2.57e-04  7.19e-06     5.6
   16    -908.7201542602545032    -1.85e-08  8.05e-07  1.46e-04  3.87e-06     5.4
   17    -908.7201542834602606    -2.32e-08  1.02e-06  2.81e-04  1.73e-06     5.3
                  *** Gradient check signals convergence ***

               *****************************************************
               *                     SUCCESS                       *
               *           SCF CONVERGED AFTER  17 CYCLES          *
               *****************************************************

Recomputing exchange energy using gridx3       ... done (    7.720 sec)
Old exchange energy                            :    -35.027494703 Eh
New exchange energy                            :    -35.027503791 Eh
Exchange energy change after final integration :     -0.000009088 Eh
Total energy after final integration           :   -908.720163371 Eh
             **** ENERGY FILE WAS UPDATED (orca.en.tmp) ****

----------------
TOTAL SCF ENERGY
----------------

Total Energy       :       -908.72016337149012 Eh          -24727.53277 eV

Components:
Nuclear Repulsion  :       1408.83253954944007 Eh           38336.28238 eV
Electronic Energy  :      -2317.55269383290033 Eh          -63063.81490 eV
One Electron Energy:      -4034.84477666794737 Eh         -109793.70818 eV
Two Electron Energy:       1717.29208283504681 Eh           46729.89328 eV

Virial components:
Potential Energy   :      -1814.29683414684473 Eh          -49369.52676 eV
Kinetic Energy     :        905.57667077535461 Eh           24641.99399 eV
Virial Ratio       :          2.00347126057636

DFT components:
N(Alpha)           :       66.999934647657 electrons
N(Beta)            :       64.999942274650 electrons
N(Total)           :      131.999876922307 electrons
E(XC)              :      -86.218973659172 Eh       

---------------
SCF CONVERGENCE
---------------

  Last Energy change         ...    2.3206e-08  Tolerance :   1.0000e-08
  Last MAX-Density change    ...    2.8098e-04  Tolerance :   1.0000e-07
  Last RMS-Density change    ...    1.0208e-06  Tolerance :   5.0000e-09
  Last DIIS Error            ...    2.3375e-03  Tolerance :   5.0000e-07
  Last Orbital Gradient      ...    1.7261e-06  Tolerance :   1.0000e-05
  Last Orbital Rotation      ...    8.1171e-06  Tolerance :   1.0000e-05


----------------------
UHF SPIN CONTAMINATION
----------------------

Warning: in a DFT calculation there is little theoretical justification to 
         calculate <S**2> as in Hartree-Fock theory. We will do it anyways
         but you should keep in mind that the values have only limited relevance

Expectation value of <S**2>     :     2.012022
Ideal value S*(S+1) for S=1.0   :     2.000000
Deviation                       :     0.012022

----------------
ORBITAL ENERGIES
----------------
                 SPIN UP ORBITALS
  NO   OCC          E(Eh)            E(eV) 
   0   1.0000     -19.329366      -525.9788 
   1   1.0000     -19.328229      -525.9478 
   2   1.0000     -19.315914      -525.6127 
   3   1.0000     -19.307570      -525.3857 
   4   1.0000     -14.568444      -396.4275 
   5   1.0000     -14.565370      -396.3439 
   6   1.0000     -14.562989      -396.2791 
   7   1.0000     -14.555829      -396.0843 
   8   1.0000     -10.507998      -285.9372 
   9   1.0000     -10.500094      -285.7221 
  10   1.0000     -10.481883      -285.2265 
  11   1.0000     -10.477028      -285.0944 
  12   1.0000     -10.456504      -284.5359 
  13   1.0000     -10.448765      -284.3253 
  14   1.0000     -10.427601      -283.7495 
  15   1.0000     -10.421663      -283.5879 
  16   1.0000     -10.388693      -282.6907 
  17   1.0000     -10.384531      -282.5775 
  18   1.0000      -1.224979       -33.3334 
  19   1.0000      -1.214142       -33.0385 
  20   1.0000      -1.196646       -32.5624 
  21   1.0000      -1.180790       -32.1309 
  22   1.0000      -1.104094       -30.0439 
  23   1.0000      -1.091743       -29.7078 
  24   1.0000      -1.073563       -29.2131 
  25   1.0000      -1.053775       -28.6747 
  26   1.0000      -0.977817       -26.6078 
  27   1.0000      -0.952434       -25.9170 
  28   1.0000      -0.883393       -24.0383 
  29   1.0000      -0.843492       -22.9526 
  30   1.0000      -0.828131       -22.5346 
  31   1.0000      -0.804591       -21.8940 
  32   1.0000      -0.794451       -21.6181 
  33   1.0000      -0.791991       -21.5512 
  34   1.0000      -0.706514       -19.2252 
  35   1.0000      -0.704676       -19.1752 
  36   1.0000      -0.685781       -18.6610 
  37   1.0000      -0.677069       -18.4240 
  38   1.0000      -0.647762       -17.6265 
  39   1.0000      -0.634489       -17.2653 
  40   1.0000      -0.627146       -17.0655 
  41   1.0000      -0.610201       -16.6044 
  42   1.0000      -0.604054       -16.4371 
  43   1.0000      -0.588216       -16.0062 
  44   1.0000      -0.580621       -15.7995 
  45   1.0000      -0.570794       -15.5321 
  46   1.0000      -0.567030       -15.4297 
  47   1.0000      -0.557228       -15.1629 
  48   1.0000      -0.553997       -15.0750 
  49   1.0000      -0.547196       -14.8900 
  50   1.0000      -0.541505       -14.7351 
  51   1.0000      -0.539645       -14.6845 
  52   1.0000      -0.525362       -14.2958 
  53   1.0000      -0.520097       -14.1526 
  54   1.0000      -0.511751       -13.9255 
  55   1.0000      -0.502976       -13.6867 
  56   1.0000      -0.495386       -13.4801 
  57   1.0000      -0.415730       -11.3126 
  58   1.0000      -0.410814       -11.1788 
  59   1.0000      -0.406749       -11.0682 
  60   1.0000      -0.404643       -11.0109 
  61   1.0000      -0.393950       -10.7199 
  62   1.0000      -0.388347       -10.5675 
  63   1.0000      -0.385003       -10.4765 
  64   1.0000      -0.380471       -10.3531 
  65   1.0000      -0.344800        -9.3825 
  66   1.0000      -0.326774        -8.8920 
  67   0.0000       0.004957         0.1349 
  68   0.0000       0.026549         0.7224 
  69   0.0000       0.029184         0.7941 
  70   0.0000       0.034716         0.9447 
  71   0.0000       0.052593         1.4311 
  72   0.0000       0.054363         1.4793 
  73   0.0000       0.059606         1.6220 
  74   0.0000       0.063141         1.7182 
  75   0.0000       0.064853         1.7647 
  76   0.0000       0.066449         1.8082 
  77   0.0000       0.070440         1.9168 

                 SPIN DOWN ORBITALS
  NO   OCC          E(Eh)            E(eV) 
   0   1.0000     -19.325747      -525.8803 
   1   1.0000     -19.324681      -525.8513 
   2   1.0000     -19.315767      -525.6087 
   3   1.0000     -19.307468      -525.3829 
   4   1.0000     -14.567808      -396.4102 
   5   1.0000     -14.565082      -396.3360 
   6   1.0000     -14.562397      -396.2630 
   7   1.0000     -14.555770      -396.0826 
   8   1.0000     -10.508043      -285.9384 
   9   1.0000     -10.500110      -285.7225 
  10   1.0000     -10.482884      -285.2538 
  11   1.0000     -10.477860      -285.1171 
  12   1.0000     -10.456139      -284.5260 
  13   1.0000     -10.447806      -284.2992 
  14   1.0000     -10.415660      -283.4245 
  15   1.0000     -10.410320      -283.2792 
  16   1.0000     -10.389129      -282.7026 
  17   1.0000     -10.385003      -282.5903 
  18   1.0000      -1.221789       -33.2466 
  19   1.0000      -1.211332       -32.9620 
  20   1.0000      -1.194219       -32.4964 
  21   1.0000      -1.177939       -32.0533 
  22   1.0000      -1.101783       -29.9811 
  23   1.0000      -1.089670       -29.6514 
  24   1.0000      -1.071602       -29.1598 
  25   1.0000      -1.052397       -28.6372 
  26   1.0000      -0.964072       -26.2337 
  27   1.0000      -0.935409       -25.4538 
  28   1.0000      -0.877841       -23.8873 
  29   1.0000      -0.838173       -22.8079 
  30   1.0000      -0.820361       -22.3231 
  31   1.0000      -0.799329       -21.7508 
  32   1.0000      -0.793121       -21.5819 
  33   1.0000      -0.790206       -21.5026 
  34   1.0000      -0.701865       -19.0987 
  35   1.0000      -0.698626       -19.0106 
  36   1.0000      -0.680040       -18.5048 
  37   1.0000      -0.670298       -18.2397 
  38   1.0000      -0.639632       -17.4053 
  39   1.0000      -0.626954       -17.0603 
  40   1.0000      -0.622330       -16.9345 
  41   1.0000      -0.604815       -16.4579 
  42   1.0000      -0.594332       -16.1726 
  43   1.0000      -0.581660       -15.8278 
  44   1.0000      -0.575669       -15.6648 
  45   1.0000      -0.565127       -15.3779 
  46   1.0000      -0.558465       -15.1966 
  47   1.0000      -0.550787       -14.9877 
  48   1.0000      -0.547578       -14.9004 
  49   1.0000      -0.539161       -14.6713 
  50   1.0000      -0.536438       -14.5972 
  51   1.0000      -0.534246       -14.5376 
  52   1.0000      -0.518126       -14.0989 
  53   1.0000      -0.511718       -13.9246 
  54   1.0000      -0.503664       -13.7054 
  55   1.0000      -0.493801       -13.4370 
  56   1.0000      -0.488208       -13.2848 
  57   1.0000      -0.411956       -11.2099 
  58   1.0000      -0.404632       -11.0106 
  59   1.0000      -0.398455       -10.8425 
  60   1.0000      -0.390145       -10.6164 
  61   1.0000      -0.386981       -10.5303 
  62   1.0000      -0.384530       -10.4636 
  63   1.0000      -0.380668       -10.3585 
  64   1.0000      -0.375797       -10.2260 
  65   0.0000      -0.058449        -1.5905 
  66   0.0000      -0.053169        -1.4468 
  67   0.0000       0.004893         0.1331 
  68   0.0000       0.026302         0.7157 
  69   0.0000       0.028941         0.7875 
  70   0.0000       0.034498         0.9387 
  71   0.0000       0.053516         1.4562 
  72   0.0000       0.054529         1.4838 
  73   0.0000       0.060528         1.6471 
  74   0.0000       0.064356         1.7512 
  75   0.0000       0.066440         1.8079 
*Only the first 10 virtual orbitals were printed.

                    ********************************
                    * MULLIKEN POPULATION ANALYSIS *
                    ********************************

--------------------------------------------
MULLIKEN ATOMIC CHARGES AND SPIN POPULATIONS
--------------------------------------------
   0 O :   -0.674344    0.131049
   1 O :   -0.661710    0.135333
   2 O :   -0.715527    0.003536
   3 O :   -0.669468    0.005354
   4 N :   -0.157064    0.018817
   5 N :   -0.282364    0.011892
   6 N :   -0.053534    0.026591
   7 N :   -0.001160    0.024556
   8 C :    0.008144    0.520577
   9 C :   -0.120971    0.473491
  10 C :    0.093647    0.130003
  11 C :    0.365125    0.101053
  12 C :   -1.640378   -0.010302
  13 C :   -1.368429    0.000508
  14 C :    0.754781    0.129072
  15 C :    0.756682    0.157079
  16 C :    0.375572   -0.000234
  17 C :    0.478927   -0.008221
  18 H :    0.641907    0.036421
  19 H :    0.627107    0.017305
  20 H :    0.289738    0.016169
  21 H :    0.406813    0.000386
  22 H :    0.427369    0.024388
  23 H :    0.346246    0.025310
  24 H :    0.300753    0.006746
  25 H :    0.284667    0.024150
  26 H :    0.047916    0.002359
  27 H :    0.024177    0.000862
  28 H :    0.095442   -0.001351
  29 H :    0.019936   -0.002899
Sum of atomic charges         :    0.0000000
Sum of atomic spin populations:    2.0000000

-----------------------------------------------------
MULLIKEN REDUCED ORBITAL CHARGES AND SPIN POPULATIONS
-----------------------------------------------------
CHARGE
  0 O s       :     4.091105  s :     4.091105
      pz      :     1.602457  p :     4.550617
      px      :     1.326014
      py      :     1.622146
      dz2     :     0.003812  d :     0.030744
      dxz     :     0.006454
      dyz     :     0.004952
      dx2y2   :     0.008844
      dxy     :     0.006682
      f0      :     0.000166  f :     0.001877
      f+1     :     0.000302
      f-1     :     0.000106
      f+2     :     0.000183
      f-2     :     0.000305
      f+3     :     0.000452
      f-3     :     0.000363

  1 O s       :     4.082144  s :     4.082144
      pz      :     1.443087  p :     4.545378
[...]
[1739941806.616714] [ohm:860283:0]        ib_iface.c:1059 UCX  ERROR ibv_create_cq(cqe=256) failed: Connection timed out
[1739941806.617299] [ohm:860384:0]        ib_iface.c:1059 UCX  ERROR ibv_create_cq(cqe=256) failed: Connection timed out
[1739941806.619201] [ohm:860365:0]        ib_iface.c:1059 UCX  ERROR ibv_create_cq(cqe=256) failed: Connection timed out
[1739941806.621490] [ohm:860368:0]        ib_iface.c:1059 UCX  ERROR ibv_create_cq(cqe=256) failed: Connection timed out
[1739941806.623468] [ohm:860426:0]        ib_iface.c:1059 UCX  ERROR ibv_create_cq(cqe=256) failed: Connection timed out
[1739941806.624008] [ohm:860341:0]        ib_iface.c:1059 UCX  ERROR ibv_create_cq(cqe=256) failed: Connection timed out
[1739941806.627208] [ohm:860280:0]        ib_iface.c:1059 UCX  ERROR ibv_create_cq(cqe=256) failed: Connection timed out
[1739941806.629807] [ohm:860411:0]        ib_iface.c:1059 UCX  ERROR ibv_create_cq(cqe=256) failed: Connection timed out
[1739941806.631152] [ohm:860414:0]        ib_iface.c:1059 UCX  ERROR ibv_create_cq(cqe=256) failed: Connection timed out
[1739941806.632705] [ohm:860392:0]        ib_iface.c:1059 UCX  ERROR ibv_create_cq(cqe=256) failed: Connection timed out
[1739941806.633061] [ohm:860337:0]        ib_iface.c:1059 UCX  ERROR ibv_create_cq(cqe=256) failed: Connection timed out


           ************************************************************
           *        Program running with 64 parallel MPI-processes    *
           *              working on a common directory               *
           ************************************************************

------------------------------------------------------------------------------
                              ORCA PROPERTY CALCULATIONS
------------------------------------------------------------------------------

GBWName                                 ... orca.gbw
Number of atoms                         ...     30
Number of basis functions               ...    882
Max core memory                         ...   1024 MB

Electric properties:
Dipole moment                           ... YES
Quadrupole moment                       ...  NO
Static polarizability (Dipole/Dipole)   ...  NO
Static polarizability (Dipole/Quad.)    ...  NO
Static polarizability (Quad./Quad.)     ...  NO
Static polarizability (Velocity)        ...  NO

Atomic electric properties:
Dipole moment                           ...  NO
Quadrupole moment                       ...  NO
Static polarizability                   ...  NO

Choice of electric origin               ... Center of mass
Position of electric origin             ...    -0.014434    -0.076577    -0.036012

General magnetic properties:
Magnetizability                         ...  NO

EPR properties:
g-Tensor (aka g-matrix)                 ...  NO
Zero-Field splitting spin-orbit         ...  NO
Zero-field splitting spin-spin          ...  NO
Hyperfine couplings                     ...  NO (   0 nuclei)
Quadrupole couplings                    ...  NO (   0 nuclei)
Contact density                         ...  NO (   0 nuclei)

NMR properties:
Chemical shifts                         ...  NO (   0 nuclei)
Spin-rotation constants                 ...  NO (   0 nuclei)
Spin-spin couplings                     ...  NO (   0 nuclei,    0 pairs)

Choice of magnetic origin               ... GIAO
Position of magnetic origin             ...     0.000000     0.000000     0.000000

Properties with geometric perturbations:
SCF Hessian                             ...  NO
IR spectrum                             ...  NO
VCD spectrum                            ...  NO
X-ray spectroscopy properties:
SCF XES/XAS/RIXS spectra                ...  NO


-------------
DIPOLE MOMENT
-------------

Method             : SCF
Type of density    : Electron Density
Multiplicity       :   3
Irrep              :   0
Energy             :  -908.7201633714901163 Eh
Relativity type    : 
Basis              : AO
                                X                 Y                 Z
Electronic contribution:     -4.170262706      -8.278312799      -7.893124084
Nuclear contribution   :      4.150876626       9.817714619      10.786141765
                        -----------------------------------------
Total Dipole Moment    :     -0.019386080       1.539401820       2.893017680
                        -----------------------------------------
Magnitude (a.u.)       :      3.277145874
Magnitude (Debye)      :      8.329842829



--------------------
Rotational spectrum 
--------------------
 
Rotational constants in cm-1:             0.018861             0.013160             0.010458 
Rotational constants in MHz :           565.426223           394.538514           313.519639 

Dipole components along the rotational axes: 
x,y,z [a.u.] :     0.483449    -1.820526     2.681725 
x,y,z [Debye]:     1.228830    -4.627408     6.816403 

 

-------------
DIPOLE MOMENT
-------------

Method             : TDA/CIS
Type of density    : Electron Density
Level              : Relaxed density
State              :   2
Multiplicity       :   3
Irrep              :   0
Energy             :     0.0000000000000000 Eh
Relativity type    : 
Basis              : AO
                                X                 Y                 Z
Electronic contribution:     -4.266528632      -8.252083697      -7.790894706
Nuclear contribution   :      4.150876626       9.817714619      10.786141765
                        -----------------------------------------
Total Dipole Moment    :     -0.115652006       1.565630922       2.995247058
                        -----------------------------------------
Magnitude (a.u.)       :      3.381727445
Magnitude (Debye)      :      8.595668055



--------------------
Rotational spectrum 
--------------------
 
Rotational constants in cm-1:             0.018861             0.013160             0.010458 
Rotational constants in MHz :           565.426223           394.538514           313.519639 

Dipole components along the rotational axes: 
x,y,z [a.u.] :     0.409854    -1.851088     2.800281 
x,y,z [Debye]:     1.041765    -4.705091     7.117749 

 

Dipole moment calculation done in   0.2 sec 

Maximum memory used throughout the entire PROP-calculation: 80.8 MB
[1739941809.058775] [ohm:860622:0]        ib_iface.c:1059 UCX  ERROR ibv_create_cq(cqe=256) failed: Connection timed out
[1739941809.062739] [ohm:860619:0]        ib_iface.c:1059 UCX  ERROR ibv_create_cq(cqe=256) failed: Connection timed out
[1739941809.067728] [ohm:860618:0]        ib_iface.c:1059 UCX  ERROR ibv_create_cq(cqe=256) failed: Connection timed out
[1739941809.079372] [ohm:860620:0]        ib_iface.c:1059 UCX  ERROR ibv_create_cq(cqe=256) failed: Connection timed out
[1739941809.083250] [ohm:860624:0]        ib_iface.c:1059 UCX  ERROR ibv_create_cq(cqe=256) failed: Connection timed out
[1739941809.095908] [ohm:860627:0]        ib_iface.c:1059 UCX  ERROR ibv_create_cq(cqe=256) failed: Connection timed out
[1739941809.111506] [ohm:860640:0]        ib_iface.c:1059 UCX  ERROR ibv_create_cq(cqe=256) failed: Connection timed out
[1739941809.156360] [ohm:860700:0]        ib_iface.c:1059 UCX  ERROR ibv_create_cq(cqe=256) failed: Connection timed out
[1739941809.169778] [ohm:860630:0]        ib_iface.c:1059 UCX  ERROR ibv_create_cq(cqe=256) failed: Connection timed out
[1739941809.169905] [ohm:860729:0]        ib_iface.c:1059 UCX  ERROR ibv_create_cq(cqe=256) failed: Connection timed out
[1739941809.171297] [ohm:860645:0]        ib_iface.c:1059 UCX  ERROR ibv_create_cq(cqe=256) failed: Connection timed out
[1739941809.178222] [ohm:860697:0]        ib_iface.c:1059 UCX  ERROR ibv_create_cq(cqe=256) failed: Connection timed out
[1739941809.199768] [ohm:860732:0]        ib_iface.c:1059 UCX  ERROR ibv_create_cq(cqe=256) failed: Connection timed out
[1739941809.206468] [ohm:860756:0]        ib_iface.c:1059 UCX  ERROR ibv_create_cq(cqe=256) failed: Connection timed out
[1739941809.236690] [ohm:860682:0]        ib_iface.c:1059 UCX  ERROR ibv_create_cq(cqe=256) failed: Connection timed out
[1739941809.249139] [ohm:860692:0]        ib_iface.c:1059 UCX  ERROR ibv_create_cq(cqe=256) failed: Connection timed out
[1739941809.257499] [ohm:860751:0]        ib_iface.c:1059 UCX  ERROR ibv_create_cq(cqe=256) failed: Connection timed out
[1739941809.264708] [ohm:860660:0]        ib_iface.c:1059 UCX  ERROR ibv_create_cq(cqe=256) failed: Connection timed out
[1739941809.265014] [ohm:860669:0]        ib_iface.c:1059 UCX  ERROR ibv_create_cq(cqe=256) failed: Connection timed out
[1739941809.265148] [ohm:860621:0]        ib_iface.c:1059 UCX  ERROR ibv_create_cq(cqe=256) failed: Connection timed out
[1739941809.277568] [ohm:860655:0]        ib_iface.c:1059 UCX  ERROR ibv_create_cq(cqe=256) failed: Connection timed out
[1739941809.278304] [ohm:860705:0]        ib_iface.c:1059 UCX  ERROR ibv_create_cq(cqe=256) failed: Connection timed out
[1739941809.290670] [ohm:860735:0]        ib_iface.c:1059 UCX  ERROR ibv_create_cq(cqe=256) failed: Connection timed out
[1739941809.294178] [ohm:860711:0]        ib_iface.c:1059 UCX  ERROR ibv_create_cq(cqe=256) failed: Connection timed out
[1739941809.294646] [ohm:860625:0]        ib_iface.c:1059 UCX  ERROR ibv_create_cq(cqe=256) failed: Connection timed out
[1739941809.296562] [ohm:860636:0]        ib_iface.c:1059 UCX  ERROR ibv_create_cq(cqe=256) failed: Connection timed out
[1739941809.298810] [ohm:860723:0]        ib_iface.c:1059 UCX  ERROR ibv_create_cq(cqe=256) failed: Connection timed out
[1739941809.300213] [ohm:860638:0]        ib_iface.c:1059 UCX  ERROR ibv_create_cq(cqe=256) failed: Connection timed out
[1739941809.303596] [ohm:860765:0]        ib_iface.c:1059 UCX  ERROR ibv_create_cq(cqe=256) failed: Connection timed out
[1739941809.308971] [ohm:860744:0]        ib_iface.c:1059 UCX  ERROR ibv_create_cq(cqe=256) failed: Connection timed out
[1739941809.311411] [ohm:860632:0]        ib_iface.c:1059 UCX  ERROR ibv_create_cq(cqe=256) failed: Connection timed out
[1739941809.319868] [ohm:860637:0]        ib_iface.c:1059 UCX  ERROR ibv_create_cq(cqe=256) failed: Connection timed out
[1739941809.323179] [ohm:860708:0]        ib_iface.c:1059 UCX  ERROR ibv_create_cq(cqe=256) failed: Connection timed out
[1739941809.327914] [ohm:860721:0]        ib_iface.c:1059 UCX  ERROR ibv_create_cq(cqe=256) failed: Connection timed out
[1739941809.330823] [ohm:860755:0]        ib_iface.c:1059 UCX  ERROR ibv_create_cq(cqe=256) failed: Connection timed out
[1739941809.331761] [ohm:860639:0]        ib_iface.c:1059 UCX  ERROR ibv_create_cq(cqe=256) failed: Connection timed out
[1739941809.336001] [ohm:860694:0]        ib_iface.c:1059 UCX  ERROR ibv_create_cq(cqe=256) failed: Connection timed out
[1739941809.336475] [ohm:860644:0]        ib_iface.c:1059 UCX  ERROR ibv_create_cq(cqe=256) failed: Connection timed out
[1739941809.337336] [ohm:860626:0]        ib_iface.c:1059 UCX  ERROR ibv_create_cq(cqe=256) failed: Connection timed out
[1739941809.338561] [ohm:860646:0]        ib_iface.c:1059 UCX  ERROR ibv_create_cq(cqe=256) failed: Connection timed out
[1739941809.342693] [ohm:860628:0]        ib_iface.c:1059 UCX  ERROR ibv_create_cq(cqe=256) failed: Connection timed out
[1739941809.342720] [ohm:860635:0]        ib_iface.c:1059 UCX  ERROR ibv_create_cq(cqe=256) failed: Connection timed out
[1739941809.344308] [ohm:860634:0]        ib_iface.c:1059 UCX  ERROR ibv_create_cq(cqe=256) failed: Connection timed out
[1739941809.349950] [ohm:860717:0]        ib_iface.c:1059 UCX  ERROR ibv_create_cq(cqe=256) failed: Connection timed out
[1739941809.353641] [ohm:860738:0]        ib_iface.c:1059 UCX  ERROR ibv_create_cq(cqe=256) failed: Connection timed out
[1739941809.365577] [ohm:860631:0]        ib_iface.c:1059 UCX  ERROR ibv_create_cq(cqe=256) failed: Connection timed out
[1739941809.368233] [ohm:860772:0]        ib_iface.c:1059 UCX  ERROR ibv_create_cq(cqe=256) failed: Connection timed out
[1739941809.372269] [ohm:860641:0]        ib_iface.c:1059 UCX  ERROR ibv_create_cq(cqe=256) failed: Connection timed out
[1739941809.373959] [ohm:860623:0]        ib_iface.c:1059 UCX  ERROR ibv_create_cq(cqe=256) failed: Connection timed out
[1739941809.375418] [ohm:860643:0]        ib_iface.c:1059 UCX  ERROR ibv_create_cq(cqe=256) failed: Connection timed out
[1739941809.379291] [ohm:860667:0]        ib_iface.c:1059 UCX  ERROR ibv_create_cq(cqe=256) failed: Connection timed out
[1739941809.387770] [ohm:860668:0]        ib_iface.c:1059 UCX  ERROR ibv_create_cq(cqe=256) failed: Connection timed out
[1739941809.399054] [ohm:860647:0]        ib_iface.c:1059 UCX  ERROR ibv_create_cq(cqe=256) failed: Connection timed out
[1739941809.399055] [ohm:860663:0]        ib_iface.c:1059 UCX  ERROR ibv_create_cq(cqe=256) failed: Connection timed out
[1739941809.400703] [ohm:860633:0]        ib_iface.c:1059 UCX  ERROR ibv_create_cq(cqe=256) failed: Connection timed out
[1739941809.403776] [ohm:860685:0]        ib_iface.c:1059 UCX  ERROR ibv_create_cq(cqe=256) failed: Connection timed out
[1739941809.409656] [ohm:860742:0]        ib_iface.c:1059 UCX  ERROR ibv_create_cq(cqe=256) failed: Connection timed out
[1739941809.409687] [ohm:860674:0]        ib_iface.c:1059 UCX  ERROR ibv_create_cq(cqe=256) failed: Connection timed out
[1739941809.412469] [ohm:860651:0]        ib_iface.c:1059 UCX  ERROR ibv_create_cq(cqe=256) failed: Connection timed out
[1739941809.413590] [ohm:860749:0]        ib_iface.c:1059 UCX  ERROR ibv_create_cq(cqe=256) failed: Connection timed out
[1739941809.415746] [ohm:860701:0]        ib_iface.c:1059 UCX  ERROR ibv_create_cq(cqe=256) failed: Connection timed out
[1739941809.416012] [ohm:860673:0]        ib_iface.c:1059 UCX  ERROR ibv_create_cq(cqe=256) failed: Connection timed out
[1739941809.416191] [ohm:860713:0]        ib_iface.c:1059 UCX  ERROR ibv_create_cq(cqe=256) failed: Connection timed out
[1739941809.418059] [ohm:860629:0]        ib_iface.c:1059 UCX  ERROR ibv_create_cq(cqe=256) failed: Connection timed out

--------------------------------
SUGGESTED CITATIONS FOR THIS RUN
--------------------------------

Below you find a list of papers that are relevant to this ORCA run
We neither can nor want to force you to cite these papers, but we appreciate if you do
You receive ORCA, which is the product of decades of hard work by many enthusiastic individuals, for free
The only thing we kindly ask in return is that you cite our papers,
We deeply appreciate it, if you show your appreciation for ORCA by not just citing the generic ORCA reference.

Please note that relegating all ORCA citations to the supporting information does *not* help us.
SI sections are not indexed - citations you put there will not count into any citation statistics
But we need these citations in order to attract the funding resources that allow us to do what we are doing

Therefore, if you are a happy ORCA user, please consider citing a few of the papers listed below in the main body of your paper

In addition to the list printed below, the program has created the file orca.bibtex that contains the list in bibtex format
You can import this file easily into all common literature databanks and citation aid programs


List of essential papers. We consider these as the minimum necessary citations

  1. Neese,F.
     Software update: the ORCA program system, version 5.0
     WIRES Comput. Molec. Sci., 2022 12(1)e1606
     doi.org/10.1002/wcms.1606

List of papers to cite with high priority. The work reported in these papers was absolutely
necessary for this run to complete.
Our perspective: the developers of density functionals and basis sets usually get cited in chemistry papers
Good! But without the algorithms to do something with them, the functionals or basis sets would not do anything.
Hence, in our opinion, the algorithm design and method developments papers are equally worthy of getting cited

  1. Neese,F.; Olbrich,G.
     Efficient use of the resolution of the identity approximation in time-dependent density functional calculations with hybrid density functionals
     Chem. Phys. Lett., 2002 362 170-178
     doi.org/10.1016/s0009-2614(02)01053-9
  2. Neese,F.
     An improvement of the resolution of the identity approximation for the formation of the Coulomb matrix
     J. Comp. Chem., 2003 24(14)1740-1747
     doi.org/10.1002/jcc.10318
  3. Neese,F.; Wennmohs,F.; Hansen,A.; Becker,U.
     Efficient, approximate and parallel Hartree-Fock and hybrid DFT calculations. A 'chain-of-spheres' algorithm for the Hartree-Fock exchange
     Chem. Phys., 2009 356(1-3)98-109
     doi.org/10.1016/j.chemphys.2008.10.036
  4. Petrenko,T.; Kossmann,S.; Neese,F.
     Efficient time-dependent density functional theory approximations for hybrid density functionals: Analytical gradients and parallelization
     J. Chem. Phys., 2011 134 054116
     doi.org/10.1063/1.3533441
  5. Helmich-Paris,B.; de Souza,B.; Neese,F.; Izsák,R.
     An improved chain of spheres for exchange algorithm
     J. Chem. Phys., 2021 155 104109
     doi.org/doi: 10.1063/5.0058766.
  6. Neese,F.
     The SHARK Integral Generation and Digestion System
     J. Comp. Chem., 2022  1-16
     doi.org/10.1002/jcc.26942
  7. Lehtola,S.; Steigemann,C.; Oliveira,M.; Marques,M.
     Recent developments in Libxc - A comprehensive library of functionals for density functional theory
     Software X, 2018 7 
     doi.org/10.1016/j.softx.2017.11.002
  8. Grimme,S.; Antony,J.; Ehrlich,S.; Krieg,H.
     A consistent and accurate ab initio parametrization of density functional dispersion correction (DFT-D) for the 94 elements H-Pu
     J. Chem. Phys., 2010 132 154104-XXXX
     doi.org/10.1063/1.3382344
  9. Grimme,S.; Ehrlich,S.; Goerigk,L.
     Effect of the damping function in dispersion corrected density functional theory
     J. Comput. Chem., 2011 32(7)1456-1465
     doi.org/10.1002/jcc.21759

List of suggested additional citations. These are papers that are important in the 'surrounding' of 
of this run, or papers that preceded the highly important papers. If you like your results we are grateful for a citation.

  1. Izsak,R.; Neese,F.
     An overlap fitted chain of spheres exchange method
     J. Chem. Phys., 2011 135 144105
     doi.org/10.1063/1.3646921
  2. Izsak,R.; Hansen,A.; Neese,F.
     The resolution of identity and chain of spheres approximations for the LPNO-CCSD singles Fock term
     Molec. Phys., 2012 110 2413-2417
     doi.org/10.1080/00268976.2012.687466
  3. Neese,F.
     The ORCA program system
     WIRES Comput. Molec. Sci., 2012 2(1)73-78
     doi.org/10.1002/wcms.81
  4. Izsak,R.; Neese,F.; Klopper,W.
     Robust fitting techniques in the chain of spheres approximation to the Fock exchange: The role of the complementary space
     J. Chem. Phys., 2013 139 
     doi.org/10.1063/1.4819264
  5. Neese,F.
     Software update: the ORCA program system, version 4.0
     WIRES Comput. Molec. Sci., 2018 8(1)1-6
     doi.org/10.1002/wcms.1327
  6. Neese,F.; Wennmohs,F.; Becker,U.; Riplinger,C.
     The ORCA quantum chemistry program package
     J. Chem. Phys., 2020 152 Art. No. L224108
     doi.org/10.1063/5.0004608

List of optional additional citations

  1. Neese,F.
     Approximate second-order SCF convergence for spin unrestricted wavefunctions
     Chem. Phys. Lett., 2000 325(1-3)93-98
     doi.org/10.1016/s0009-2614(00)00662-x

Timings for individual modules:

Sum of individual times          ...      261.846 sec (=   4.364 min)
Startup calculation              ...        6.196 sec (=   0.103 min)   2.4 %
SCF iterations                   ...      121.890 sec (=   2.031 min)  46.6 %
Property integrals               ...        4.267 sec (=   0.071 min)   1.6 %
Property calculations            ...        2.840 sec (=   0.047 min)   1.1 %
CIS module                       ...      126.653 sec (=   2.111 min)  48.4 %
                             ****ORCA TERMINATED NORMALLY****
TOTAL RUN TIME: 0 days 0 hours 4 minutes 23 seconds 840 msec
