
                                 *****************
                                 * O   R   C   A *
                                 *****************

                                            #,                                       
                                            ###                                      
                                            ####                                     
                                            #####                                    
                                            ######                                   
                                           ########,                                 
                                     ,,################,,,,,                         
                               ,,#################################,,                 
                          ,,##########################################,,             
                       ,#########################################, ''#####,          
                    ,#############################################,,   '####,        
                  ,##################################################,,,,####,       
                ,###########''''           ''''###############################       
              ,#####''   ,,,,##########,,,,          '''####'''          '####       
            ,##' ,,,,###########################,,,                        '##       
           ' ,,###''''                  '''############,,,                           
         ,,##''                                '''############,,,,        ,,,,,,###''
      ,#''                                            '''#######################'''  
     '                                                          ''''####''''         
             ,#######,   #######,   ,#######,      ##                                
            ,#'     '#,  ##    ##  ,#'     '#,    #''#        ,####,   ,####,        
            ##       ##  ##   ,#'  ##            #'  '#       #'       #'  '#        
            ##       ##  #######   ##           ,######,      #####,   #    #        
            '#,     ,#'  ##    ##  '#,     ,#' ,#      #,     #,   #   #,  ,#        
             '#######'   ##     ##  '#######'  #'      '#     '####' # '####'        



                #########################################################
                #                        -***-                          #
                #          Department of theory and spectroscopy        #
                #                                                       #
                #                      Frank Neese                      #
                #                                                       #
                #     Directorship, Architecture, Infrastructure        #
                #                    SHARK, DRIVERS                     #
                #        Core code/Algorithms in most modules           #
                #                                                       #
                #        Max Planck Institute fuer Kohlenforschung      #
                #                Kaiser Wilhelm Platz 1                 #
                #                 D-45470 Muelheim/Ruhr                 #
                #                      Germany                          #
                #                                                       #
                #                  All rights reserved                  #
                #                        -***-                          #
                #########################################################


                         Program Version 6.0.0  -   RELEASE  -


 With contributions from (in alphabetic order):
   Daniel Aravena         : Magnetic Suceptibility
   Michael Atanasov       : Ab Initio Ligand Field Theory (pilot matlab implementation)
   Alexander A. Auer      : GIAO ZORA, VPT2 properties, NMR spectrum
   Ute Becker             : All parallelization in ORCA, NUMFREQ, NUMCALC
   Giovanni Bistoni       : ED, misc. LED, open-shell LED, HFLD
   Martin Brehm           : Molecular dynamics
   Dmytro Bykov           : pre 5.0 version of the SCF Hessian
   Marcos Casanova-Páez   : Triplet and SCS-CIS(D). UHF-(DLPNO)-IP/EA/STEOM-CCSD. UHF-CVS-IP/STEOM-CCSD
   Vijay G. Chilkuri      : MRCI spin determinant printing, contributions to CSF-ICE
   Pauline Colinet        : FMM embedding
   Dipayan Datta          : RHF DLPNO-CCSD density
   Achintya Kumar Dutta   : EOM-CC, STEOM-CC
   Nicolas Foglia         : Exact transition moments, OPA infrastructure, MCD improvements
   Dmitry Ganyushin       : Spin-Orbit,Spin-Spin,Magnetic field MRCI
   Miquel Garcia          : C-PCM and meta-GGA Hessian, CCSD/C-PCM, Gaussian charge scheme
   Tiago L. C. Gouveia    : GS-ROHF, GS-ROCIS
   Yang Guo               : DLPNO-NEVPT2, F12-NEVPT2, CIM, IAO-localization
   Andreas Hansen         : Spin unrestricted coupled pair/coupled cluster methods
   Ingolf Harden          : AUTO-CI MPn and infrastructure 
   Benjamin Helmich-Paris : MC-RPA, TRAH-(SCF,CASSCF), AVAS, COSX integrals, SCF dyn. polar.
   Lee Huntington         : MR-EOM, pCC
   Robert Izsak           : Overlap fitted RIJCOSX, COSX-SCS-MP3, EOM
   Riya Kayal             : Wick's Theorem for AUTO-CI, AUTO-CI UHF-CCSDT
   Emily Kempfer          : AUTO-CI, RHF CISDT and CCSDT
   Christian Kollmar      : KDIIS, OOCD, Brueckner-CCSD(T), CCSD density, CASPT2, CASPT2-K, improved NEVPT2
   Axel Koslowski         : Symmetry handling
   Simone Kossmann        : Meta GGA functionals, TD-DFT gradient, OOMP2, (MP2 Hessian; deprecated post 5.0)
   Lucas Lang             : DCDCAS
   Marvin Lechner         : AUTO-CI (C++ implementation), FIC-MRCC
   Spencer Leger          : CASSCF response
   Dagmar Lenk            : GEPOL surface, SMD, ORCA-2-JSON
   Dimitrios Liakos       : Extrapolation schemes; Compound Job, initial MDCI parallelization
   Dimitrios Manganas     : Further ROCIS development; embedding schemes. LFT, Crystal Embedding
   Dimitrios Pantazis     : SARC Basis sets
   Anastasios Papadopoulos: AUTO-CI, single reference methods and gradients
   Taras Petrenko         : pre 6.0 DFT Hessian and TD-DFT gradient, (ASA, deprecated), ECA, 1-Electron XAS/XES, NRVS
   Peter Pinski           : DLPNO-MP2, DLPNO-MP2 Gradient
   Christoph Reimann      : Effective Core Potentials
   Marius Retegan         : Local ZFS, SOC
   Christoph Riplinger    : Optimizer, TS searches, QM/MM, DLPNO-CCSD(T), (RO)-DLPNO pert. Triples
   Michael Roemelt        : Original ROCIS implementation
   Masaaki Saitow         : Open-shell DLPNO-CCSD energy and density
   Barbara Sandhoefer     : DKH picture change effects
   Kantharuban Sivalingam : CASSCF convergence/infrastructure, NEVPT2 and variants, FIC-MRCI
   Bernardo de Souza      : ESD, SOC TD-DFT
   Georgi Stoychev        : AutoAux, RI-MP2 NMR, DLPNO-MP2 response, X2C
   Van Anh Tran           : RI-MP2 g-tensors
   Willem Van den Heuvel  : Paramagnetic NMR
   Zikuan Wang            : NOTCH, Electric field optimization 
   Frank Wennmohs         : Technical directorship and infrastructure
   Hang Xu                : AUTO-CI-Response properties 


 We gratefully acknowledge several colleagues who have allowed us to
 interface, adapt or use parts of their codes:
   Stefan Grimme, W. Hujo, H. Kruse, P. Pracht,  : VdW corrections, initial TS optimization,
                  C. Bannwarth, S. Ehlert,         DFT functionals, gCP, sTDA/sTD-DF
                  L. Wittmann, M. Mueller
   Ed Valeev, F. Pavosevic, A. Kumar             : LibInt (2-el integral package), F12 methods
   Garnet Chan, S. Sharma, J. Yang, R. Olivares  : DMRG
   Ulf Ekstrom                                   : XCFun DFT Library
   Mihaly Kallay                                 : mrcc  (arbitrary order and MRCC methods)
   Frank Weinhold                                : gennbo (NPA and NBO analysis)
   Simon Mueller                                 : openCOSMO-RS
   Christopher J. Cramer and Donald G. Truhlar   : smd solvation model
   Lars Goerigk                                  : TD-DFT with DH, B97 family of functionals
   V. Asgeirsson, H. Jonsson                     : NEB implementation
   FAccTs GmbH                                   : IRC, NEB, NEB-TS, DLPNO-Multilevel, CI-OPT
                                                   MM, QMMM, 2- and 3-layer-ONIOM, Crystal-QMMM,
                                                   LR-CPCM, SF, NACMEs, symmetry and pop. for TD-DFT,
                                                   nearIR, NL-DFT gradient (VV10), updates on ESD,
                                                   ML-optimized integration grids, MBIS, APM,
                                                   GOAT, DOCKER, SOLVATOR, interface openCOSMO-RS
   S Lehtola, MJT Oliveira, MAL Marques          : LibXC Library
   Liviu Ungur et al                             : ANISO software


 Your calculation uses the libint2 library for the computation of 2-el integrals
 For citations please refer to: http://libint.valeyev.net

 Your ORCA version has been built with support for libXC version: 6.2.2
 For citations please refer to: https://libxc.gitlab.io

 This ORCA versions uses:
   CBLAS   interface :  Fast vector & matrix operations
   LAPACKE interface :  Fast linear algebra routines
   SCALAPACK package :  Parallel linear algebra routines
   Shared memory     :  Shared parallel matrices
   BLAS/LAPACK       :  OpenBLAS 0.3.27  USE64BITINT DYNAMIC_ARCH NO_AFFINITY Zen SINGLE_THREADED
        Core in use  :  Zen
   Copyright (c) 2011-2014, The OpenBLAS Project


Your calculation utilizes the atom-pairwise dispersion correction
with the Becke-Johnson damping scheme (D3BJ)


Warning: RI is on but no J-basis has been assigned. Assigning Def2/J (nothing to worry about!)
================================================================================

----- Orbital basis set information -----
Your calculation utilizes the basis: def2-TZVPPD
   F. Weigend and R. Ahlrichs, Phys. Chem. Chem. Phys. 7, 3297 (2005).
   D. Rappoport and F. Furche, J. Chem. Phys. 133, 134105 (2010)
   D. Rappoport, J. Chem. Phys. 155, 124102 (2021).

----- AuxJ basis set information -----
Your calculation utilizes the auxiliary basis: def2/J
   F. Weigend, Phys. Chem. Chem. Phys. 8, 1057 (2006).

================================================================================
                                        WARNINGS
                       Please study these warnings very carefully!
================================================================================

Using LibXC functional ID 531 : wB97M-V exchange-correlation functional
[ 1]  N. Mardirossian and M. Head-Gordon.,  J. Chem. Phys. 144, 214110 (2016)
Using LibXC functional ID 531 : wB97M-V exchange-correlation functional
[ 1]  N. Mardirossian and M. Head-Gordon.,  J. Chem. Phys. 144, 214110 (2016)

WARNING: B97M-V or wB97M-V functional requested.
  ===> : libXC variant has now been activated.
         Any manually given DFX/HFX/RangeSep scaling parameters are IGNORED!

Your calculation utilizes LibXC
 by S Lehtola, C Steigemann, MJT Oliveira & MAL Marques
Please cite in your paper:
 S Lehtola, C Steigemann, MJT Oliveira & MAL Marques, SoftwareX, 7, (2018), 1.
   

INFO   : Checking CIS options ...

WARNING: CIS/ROCIS methods need fully converged wavefunctions
  ===> : Setting SCFConvForced true
         You can overwrite this default with %scf ConvForced false 


================================================================================
                                       INPUT FILE
================================================================================
NAME = orca.inp
|  1> ! ENGRAD wB97M-D3BJ def2-TZVPPD 
|  2> %pal nprocs 8 end%pal nprocs 16 end 
|  3> %tddft nroots 4 Iroot 1 end 
|  4> *xyz 0 1 
|  5> O   1.76779652057804 0.87672717806936 0.0687777370281
|  6> C   0.98616712497086 -0.02638097580492 0.18075879215592
|  7> C   -0.30275334671907 -0.6684636004262 -0.25523820986728
|  8> H   1.32993675712694 -0.76404475764835 0.96294923063935
|  9> H   -0.02841597184496 -1.66985692528229 -0.58138066962301
| 10> H   -0.88333064778542 -0.16699377609538 -1.02863689786548
| 11> H   -0.89426898698733 -0.76957631476176 0.6527700175324
| 12> *
| 13> 
| 14>                          ****END OF INPUT****
================================================================================

                     *******************************
                     * Energy+Gradient Calculation *
                     *******************************

---------------------------------
CARTESIAN COORDINATES (ANGSTROEM)
---------------------------------
  O      1.767797    0.876727    0.068778
  C      0.986167   -0.026381    0.180759
  C     -0.302753   -0.668464   -0.255238
  H      1.329937   -0.764045    0.962949
  H     -0.028416   -1.669857   -0.581381
  H     -0.883331   -0.166994   -1.028637
  H     -0.894269   -0.769576    0.652770

----------------------------
CARTESIAN COORDINATES (A.U.)
----------------------------
  NO LB      ZA    FRAG     MASS         X           Y           Z
   0 O     8.0000    0    15.999    3.340651    1.656774    0.129971
   1 C     6.0000    0    12.011    1.863586   -0.049853    0.341585
   2 C     6.0000    0    12.011   -0.572121   -1.263213   -0.482330
   3 H     1.0000    0     1.008    2.513216   -1.443835    1.819710
   4 H     1.0000    0     1.008   -0.053698   -3.155572   -1.098650
   5 H     1.0000    0     1.008   -1.669253   -0.315573   -1.943842
   6 H     1.0000    0     1.008   -1.689923   -1.454288    1.233557

--------------------------------
INTERNAL COORDINATES (ANGSTROEM)
--------------------------------
 O      0   0   0     0.000000000000     0.00000000     0.00000000
 C      1   0   0     1.199620192552     0.00000000     0.00000000
 C      2   1   0     1.504552911983   148.47457212     0.00000000
 H      2   1   3     1.128781332717   110.99143487   180.00018848
 H      3   2   1     1.088309923861   105.28202018   123.15015052
 H      3   2   1     1.089351879709   117.76564431   359.90517309
 H      3   2   1     1.088390313586   105.27633510   236.64433917

---------------------------
INTERNAL COORDINATES (A.U.)
---------------------------
 O      0   0   0     0.000000000000     0.00000000     0.00000000
 C      1   0   0     2.266953628646     0.00000000     0.00000000
 C      2   1   0     2.843192957641   148.47457212     0.00000000
 H      2   1   3     2.133087583918   110.99143487   180.00018848
 H      3   2   1     2.056607704926   105.28202018   123.15015052
 H      3   2   1     2.058576716122   117.76564431   359.90517309
 H      3   2   1     2.056759619490   105.27633510   236.64433917

---------------------
BASIS SET INFORMATION
---------------------
There are 3 groups of distinct atoms

 Group   1 Type O   : 12s7p3d1f contracted to 6s4p3d1f pattern {621111/4111/111/1}
 Group   2 Type C   : 12s6p3d1f contracted to 6s3p3d1f pattern {621111/411/111/1}
 Group   3 Type H   : 5s3p1d contracted to 3s3p1d pattern {311/111/1}

Atom   0O    basis set group =>   1
Atom   1C    basis set group =>   2
Atom   2C    basis set group =>   2
Atom   3H    basis set group =>   3
Atom   4H    basis set group =>   3
Atom   5H    basis set group =>   3
Atom   6H    basis set group =>   3
---------------------------------
AUXILIARY/J BASIS SET INFORMATION
---------------------------------
There are 3 groups of distinct atoms

 Group   1 Type O   : 12s5p4d2f1g contracted to 6s4p3d1f1g pattern {711111/2111/211/2/1}
 Group   2 Type C   : 12s5p4d2f1g contracted to 6s4p3d1f1g pattern {711111/2111/211/2/1}
 Group   3 Type H   : 5s2p1d contracted to 3s1p1d pattern {311/2/1}

Atom   0O    basis set group =>   1
Atom   1C    basis set group =>   2
Atom   2C    basis set group =>   2
Atom   3H    basis set group =>   3
Atom   4H    basis set group =>   3
Atom   5H    basis set group =>   3
Atom   6H    basis set group =>   3
[1741192333.741128] [ohm:228785:0]        ib_iface.c:1059 UCX  ERROR ibv_create_cq(cqe=256) failed: Connection timed out
[1741192333.764833] [ohm:228777:0]        ib_iface.c:1059 UCX  ERROR ibv_create_cq(cqe=256) failed: Connection timed out
[1741192333.767626] [ohm:228783:0]        ib_iface.c:1059 UCX  ERROR ibv_create_cq(cqe=256) failed: Connection timed out
[1741192333.789854] [ohm:228778:0]        ib_iface.c:1059 UCX  ERROR ibv_create_cq(cqe=256) failed: Connection timed out
[1741192333.791493] [ohm:228779:0]        ib_iface.c:1059 UCX  ERROR ibv_create_cq(cqe=256) failed: Connection timed out
[1741192333.791595] [ohm:228781:0]        ib_iface.c:1059 UCX  ERROR ibv_create_cq(cqe=256) failed: Connection timed out
[1741192333.797142] [ohm:228780:0]        ib_iface.c:1059 UCX  ERROR ibv_create_cq(cqe=256) failed: Connection timed out
[1741192333.818246] [ohm:228797:0]        ib_iface.c:1059 UCX  ERROR ibv_create_cq(cqe=256) failed: Connection timed out
[1741192333.819255] [ohm:228782:0]        ib_iface.c:1059 UCX  ERROR ibv_create_cq(cqe=256) failed: Connection timed out
[1741192333.820565] [ohm:228792:0]        ib_iface.c:1059 UCX  ERROR ibv_create_cq(cqe=256) failed: Connection timed out
[1741192333.824093] [ohm:228787:0]        ib_iface.c:1059 UCX  ERROR ibv_create_cq(cqe=256) failed: Connection timed out
[1741192333.837150] [ohm:228789:0]        ib_iface.c:1059 UCX  ERROR ibv_create_cq(cqe=256) failed: Connection timed out
[1741192333.839095] [ohm:228801:0]        ib_iface.c:1059 UCX  ERROR ibv_create_cq(cqe=256) failed: Connection timed out
[1741192333.845631] [ohm:228786:0]        ib_iface.c:1059 UCX  ERROR ibv_create_cq(cqe=256) failed: Connection timed out
[1741192333.846417] [ohm:228784:0]        ib_iface.c:1059 UCX  ERROR ibv_create_cq(cqe=256) failed: Connection timed out
[1741192333.902873] [ohm:228808:0]        ib_iface.c:1059 UCX  ERROR ibv_create_cq(cqe=256) failed: Connection timed out


           ************************************************************
           *        Program running with 16 parallel MPI-processes    *
           *              working on a common directory               *
           ************************************************************
------------------------------------------------------------------------------
                             ORCA STARTUP CALCULATIONS
                           -- RI-GTO INTEGRALS CHOSEN --
------------------------------------------------------------------------------
------------------------------------------------------------------------------
                   ___                                                        
                  /   \      - P O W E R E D   B Y -                         
                 /     \                                                     
                 |  |  |   _    _      __       _____    __    __             
                 |  |  |  | |  | |    /  \     |  _  \  |  |  /  |          
                  \  \/   | |  | |   /    \    | | | |  |  | /  /          
                 / \  \   | |__| |  /  /\  \   | |_| |  |  |/  /          
                |  |  |   |  __  | /  /__\  \  |    /   |      \           
                |  |  |   | |  | | |   __   |  |    \   |  |\   \          
                \     /   | |  | | |  |  |  |  | |\  \  |  | \   \       
                 \___/    |_|  |_| |__|  |__|  |_| \__\ |__|  \__/        
                                                                              
                      - O R C A' S   B I G   F R I E N D -                    
                                      &                                       
                       - I N T E G R A L  F E E D E R -                       
                                                                              
 v1 FN, 2020, v2 2021, v3 2022-2024                                           
------------------------------------------------------------------------------


----------------------
SHARK INTEGRAL PACKAGE
----------------------

Number of atoms                             ...      7
Number of basis functions                   ...    182
Number of shells                            ...     68
Maximum angular momentum                    ...      3
Integral batch strategy                     ... SHARK/LIBINT Hybrid
RI-J (if used) integral strategy            ... SPLIT-RIJ (Revised 2003 algorithm where possible)
Printlevel                                  ...      1
Contraction scheme used                     ... SEGMENTED contraction
Prescreening option                         ... SCHWARTZ
   Thresh                                   ... 2.500e-11
   Tcut                                     ... 2.500e-12
   Tpresel                                  ... 2.500e-12 
Coulomb Range Separation                    ... NOT USED
Exchange Range Separation                   ... Long Range
   Mu parameter                             ... 3.000e-01
   Scaling (regular/separated)              ... 1.500e-01 8.500e-01
Multipole approximations                    ... NOT USED
Finite Nucleus Model                        ... NOT USED
CABS basis                                  ... NOT available
Auxiliary Coulomb fitting basis             ... AVAILABLE
   # of basis functions in Aux-J            ...    191
   # of shells in Aux-J                     ...     65
   Maximum angular momentum in Aux-J        ...      4
Auxiliary J/K fitting basis                 ... NOT available
Auxiliary Correlation fitting basis         ... NOT available
Auxiliary 'external' fitting basis          ... NOT available

Checking pre-screening integrals            ... done (  0.0 sec) Dimension = 68
Check shell pair data                       ... done (  0.0 sec)
Shell pair information
Shell pair cut-off parameter TPreSel        ...   2.5e-12
Total number of shell pairs                 ...      2346
Shell pairs after pre-screening             ...      2318
Total number of primitive shell pairs       ...      5434
Primitive shell pairs kept                  ...      4779
          la=0 lb=0:    452 shell pairs
          la=1 lb=0:    653 shell pairs
          la=1 lb=1:    253 shell pairs
          la=2 lb=0:    383 shell pairs
          la=2 lb=1:    286 shell pairs
          la=2 lb=2:     91 shell pairs
          la=3 lb=0:     89 shell pairs
          la=3 lb=1:     66 shell pairs
          la=3 lb=2:     39 shell pairs
          la=3 lb=3:      6 shell pairs

Calculating one electron integrals          ... done (  0.1 sec)
Calculating RI/J V-Matrix + Cholesky decomp.... done (  0.2 sec)
Calculating Nuclear repulsion               ... done (  0.0 sec) ENN=     68.982328238479 Eh

Diagonalization of the overlap matrix:
Smallest eigenvalue                        ... 1.287e-05
Time for diagonalization                   ...    0.003 sec
Threshold for overlap eigenvalues          ... 1.000e-07
Number of eigenvalues below threshold      ... 0
Time for construction of square roots      ...    0.001 sec
Total time needed                          ...    0.088 sec

-------------------
DFT GRID GENERATION
-------------------

General Integration Accuracy     IntAcc      ... 4.388
Radial Grid Type                 RadialGrid  ... OptM3 with GC (2021)
Angular Grid (max. ang.)         AngularGrid ... 4 (Lebedev-302)
Angular grid pruning method      GridPruning ... 4 (adaptive)
Weight generation scheme         WeightScheme... mBecke (2022)
Basis function cutoff            BFCut       ... 1.0000e-11
Integration weight cutoff        WCut        ... 1.0000e-14
Partially contracted basis set               ... off
Rotationally invariant grid construction     ... off
Angular grids for H and He will be reduced by one unit
Diffuse basis detected: some atoms will have their outermost
                        angular grid increased by 1.

Total number of grid points                  ...    33126
Total number of batches                      ...      520
Average number of points per batch           ...       63
Average number of grid points per atom       ...     4732

--------------------
COSX GRID GENERATION
--------------------

GRIDX 1
-------
General Integration Accuracy     IntAcc      ... 3.816
Radial Grid Type                 RadialGrid  ... OptM3 with GC (2021)
Angular Grid (max. ang.)         AngularGrid ... 1 (Lebedev-50)
Angular grid pruning method      GridPruning ... 4 (adaptive)
Weight generation scheme         WeightScheme... mBecke (2022)
Basis function cutoff            BFCut       ... 1.0000e-11
Integration weight cutoff        WCut        ... 1.0000e-14
Partially contracted basis set               ... on
Rotationally invariant grid construction     ... off
Angular grids for H and He will be reduced by one unit
Diffuse basis detected: some atoms will have their outermost
                        angular grid increased by 1.

Total number of grid points                  ...     4162
Total number of batches                      ...       36
Average number of points per batch           ...      115
Average number of grid points per atom       ...      595
UseSFitting                                  ... on

GRIDX 2
-------
General Integration Accuracy     IntAcc      ... 4.020
Radial Grid Type                 RadialGrid  ... OptM3 with GC (2021)
Angular Grid (max. ang.)         AngularGrid ... 2 (Lebedev-110)
Angular grid pruning method      GridPruning ... 4 (adaptive)
Weight generation scheme         WeightScheme... mBecke (2022)
Basis function cutoff            BFCut       ... 1.0000e-11
Integration weight cutoff        WCut        ... 1.0000e-14
Partially contracted basis set               ... on
Rotationally invariant grid construction     ... off
Angular grids for H and He will be reduced by one unit
Diffuse basis detected: some atoms will have their outermost
                        angular grid increased by 1.

Total number of grid points                  ...    10280
Total number of batches                      ...       84
Average number of points per batch           ...      122
Average number of grid points per atom       ...     1469
UseSFitting                                  ... on

GRIDX 3
-------
General Integration Accuracy     IntAcc      ... 4.338
Radial Grid Type                 RadialGrid  ... OptM3 with GC (2021)
Angular Grid (max. ang.)         AngularGrid ... 3 (Lebedev-194)
Angular grid pruning method      GridPruning ... 4 (adaptive)
Weight generation scheme         WeightScheme... mBecke (2022)
Basis function cutoff            BFCut       ... 1.0000e-11
Integration weight cutoff        WCut        ... 1.0000e-14
Partially contracted basis set               ... on
Rotationally invariant grid construction     ... off
Angular grids for H and He will be reduced by one unit
Diffuse basis detected: some atoms will have their outermost
                        angular grid increased by 1.

Total number of grid points                  ...    23117
Total number of batches                      ...      184
Average number of points per batch           ...      125
Average number of grid points per atom       ...     3302
UseSFitting                                  ... on
Initializing property integral containers    ... done (  0.0 sec)

SHARK setup successfully completed in   0.8 seconds

Maximum memory used throughout the entire STARTUP-calculation: 13.8 MB
[1741192335.785112] [ohm:228864:0]        ib_iface.c:1059 UCX  ERROR ibv_create_cq(cqe=256) failed: Connection timed out
[1741192335.790933] [ohm:228860:0]        ib_iface.c:1059 UCX  ERROR ibv_create_cq(cqe=256) failed: Connection timed out
[1741192335.796245] [ohm:228862:0]        ib_iface.c:1059 UCX  ERROR ibv_create_cq(cqe=256) failed: Connection timed out
[1741192335.803615] [ohm:228871:0]        ib_iface.c:1059 UCX  ERROR ibv_create_cq(cqe=256) failed: Connection timed out
[1741192335.811053] [ohm:228863:0]        ib_iface.c:1059 UCX  ERROR ibv_create_cq(cqe=256) failed: Connection timed out
[1741192335.811941] [ohm:228865:0]        ib_iface.c:1059 UCX  ERROR ibv_create_cq(cqe=256) failed: Connection timed out
[1741192335.820584] [ohm:228861:0]        ib_iface.c:1059 UCX  ERROR ibv_create_cq(cqe=256) failed: Connection timed out
[1741192335.827942] [ohm:228883:0]        ib_iface.c:1059 UCX  ERROR ibv_create_cq(cqe=256) failed: Connection timed out
[1741192335.837740] [ohm:228877:0]        ib_iface.c:1059 UCX  ERROR ibv_create_cq(cqe=256) failed: Connection timed out
[1741192335.839500] [ohm:228894:0]        ib_iface.c:1059 UCX  ERROR ibv_create_cq(cqe=256) failed: Connection timed out
[1741192335.849549] [ohm:228892:0]        ib_iface.c:1059 UCX  ERROR ibv_create_cq(cqe=256) failed: Connection timed out
[1741192335.855249] [ohm:228881:0]        ib_iface.c:1059 UCX  ERROR ibv_create_cq(cqe=256) failed: Connection timed out
[1741192335.856121] [ohm:228868:0]        ib_iface.c:1059 UCX  ERROR ibv_create_cq(cqe=256) failed: Connection timed out
[1741192335.857867] [ohm:228884:0]        ib_iface.c:1059 UCX  ERROR ibv_create_cq(cqe=256) failed: Connection timed out
[1741192335.867499] [ohm:228866:0]        ib_iface.c:1059 UCX  ERROR ibv_create_cq(cqe=256) failed: Connection timed out
[1741192335.870516] [ohm:228873:0]        ib_iface.c:1059 UCX  ERROR ibv_create_cq(cqe=256) failed: Connection timed out


           ************************************************************
           *        Program running with 16 parallel MPI-processes    *
           *              working on a common directory               *
           ************************************************************
-------------------------------------------------------------------------------
                                 ORCA GUESS
                   Start orbitals & Density for SCF / CASSCF
-------------------------------------------------------------------------------

------------
SCF SETTINGS
------------
Hamiltonian:
 Density Functional     Method          .... DFT(GTOs)
  Functional kind                       .... Exchange-Correlation
  Functional name                       .... wB97M-V exchange-correlation functional
  Functional family                     .... Hybrid MGGA
  Functional refs                              
    [ 0] N. Mardirossian and M. Head-Gordon.,  J. Chem. Phys. 144, 214110 (2016), doi: 10.1063/1.4952647
  Fraction of HF Exchange (short range) .... 0.1500
  Fraction of HF Exchange (long range)  .... 1.0000
  Range separation parameter mu         .... 0.3000
  Functional external parameters        .... 17
    Parameter  0 _cx00      =  8.500000e-01 : u^00 coefficient for exchange
    Parameter  1 _cx01      =  1.007000e+00 : u^01 coefficient for exchange
    Parameter  2 _cx10      =  2.590000e-01 : u^10 coefficient for exchange
    Parameter  3 _css00     =  4.430000e-01 : u^00 coefficient for same-spin correlation
    Parameter  4 _css04     = -1.437000e+00 : u^04 coefficient for same-spin correlation
    Parameter  5 _css10     = -4.535000e+00 : u^10 coefficient for same-spin correlation
    Parameter  6 _css20     = -3.390000e+00 : u^20 coefficient for same-spin correlation
    Parameter  7 _css43     =  4.278000e+00 : u^43 coefficient for same-spin correlation
    Parameter  8 _cos00     =  1.000000e+00 : u^00 coefficient for opposite-spin correlation
    Parameter  9 _cos10     =  1.358000e+00 : u^10 coefficient for opposite-spin correlation
    Parameter 10 _cos20     =  2.924000e+00 : u^20 coefficient for opposite-spin correlation
    Parameter 11 _cos21     = -8.812000e+00 : u^21 coefficient for opposite-spin correlation
    Parameter 12 _cos60     = -1.390000e+00 : u^60 coefficient for opposite-spin correlation
    Parameter 13 _cos61     =  9.142000e+00 : u^61 coefficient for opposite-spin correlation
    Parameter 14 _alpha     =  1.000000e+00 : fraction of HF exchange
    Parameter 15 _beta      = -8.500000e-01 : fraction of short-range exchange
    Parameter 16 _omega     =  3.000000e-01 : range-separation constant
 Long-range corrected/Screened/Range-Separated Hybrid DFT is turned on
   Amount of maximum screened exact exchange              ....  0.850000
   Range separation parameter mu (erf(mu*r12)/r12)        ....  0.300000
 RI-approximation to the Coulomb term is turned on
   Number of AuxJ basis functions       .... 191
   RIJ-COSX (HFX calculated with COS-X)).... on


General Settings:
 Integral files         IntName         .... orca
 Hartree-Fock type      HFTyp           .... RHF
 Total Charge           Charge          ....    0
 Multiplicity           Mult            ....    1
 Number of Electrons    NEL             ....   24
 Basis Dimension        Dim             ....  182
 Nuclear Repulsion      ENuc            ....     68.9823282385 Eh

Convergence Acceleration:
 AO-DIIS                CNVDIIS         .... on
   Start iteration      DIISMaxIt       ....    12
   Startup error        DIISStart       ....  0.200000
   # of expansion vecs  DIISMaxEq       ....     5
   Bias factor          DIISBfac        ....   1.050
   Max. coefficient     DIISMaxC        ....  10.000
 MO-DIIS                CNVKDIIS        .... off
 Trust-Rad. Augm. Hess. CNVTRAH         .... auto
   Auto Start mean grad. ratio tolernc. ....  1.125000
   Auto Start start iteration           ....    50
   Auto Start num. interpolation iter.  ....    10
   Max. Number of Micro iterations      ....    24
   Max. Number of Macro iterations      .... Maxiter - #DIIS iter
   Number of Davidson start vectors     ....     2
   Converg. threshold    (grad. norm)   ....   1.000e-05
   Grad. Scal. Fac. for Micro threshold ....   0.100
   Minimum threshold for Micro iter.    ....   1.000e-02
   NR start threshold (gradient norm)   ....   1.000e-04
   Initial trust radius                 ....   0.400
   Minimum AH scaling param. (alpha)    ....   1.000
   Maximum AH scaling param. (alpha)    .... 1000.000
   Quad. conv. algorithm                .... NR
   White noise on init. David. guess    .... on
   Maximum white noise                  ....   0.010
   Pseudo random numbers                .... off
   Inactive MOs                         .... canonical
   Orbital update algorithm             .... Taylor
   Preconditioner                       .... Diag
   Full preconditioner red. dimension   ....   250
 SOSCF                  CNVSOSCF        .... on
   Start iteration      SOSCFMaxIt      ....   150
   Startup grad/error   SOSCFStart      ....  0.003300
   Hessian update       SOSCFHessUp     .... L-BFGS
 Level Shifting         CNVShift        .... on
   Level shift para.    LevelShift      ....    0.2500
   Turn off err/grad.   ShiftErr        ....    0.0010
 Zerner damping         CNVZerner       .... off
 Static damping         CNVDamp         .... on
   Fraction old density DampFac         ....    0.7000
   Max. Damping (<1)    DampMax         ....    0.9800
   Min. Damping (>=0)   DampMin         ....    0.0000
   Turn off err/grad.   DampErr         ....    0.1000

SCF Procedure:
 Maximum # iterations   MaxIter         ....   125
 SCF integral mode      SCFMode         .... Direct
   Integral package                     .... SHARK and LIBINT hybrid scheme
 Reset frequency        DirectResetFreq ....    20
 Integral Threshold     Thresh          ....  2.500e-11 Eh
 Primitive CutOff       TCut            ....  2.500e-12 Eh

Convergence Tolerance:
 Convergence Check Mode ConvCheckMode   .... Total+1el-Energy
 Convergence forced     ConvForced      .... 1
 Energy Change          TolE            ....  1.000e-08 Eh
 1-El. energy change                    ....  1.000e-05 Eh
 Orbital Gradient       TolG            ....  1.000e-05
 Orbital Rotation angle TolX            ....  1.000e-05
 DIIS Error             TolErr          ....  5.000e-07

------------------------------
INITIAL GUESS: MODEL POTENTIAL
------------------------------
Loading Hartree-Fock densities                     ... done
Calculating cut-offs                               ... done
Initializing the effective Hamiltonian             ... done
Setting up the integral package (SHARK)            ... done
Starting the Coulomb interaction                   ... done (   0.0 sec)
Making the grid                                    ... done (   0.1 sec)
Mapping shells                                     ... done
Starting the XC term evaluation                    ... done (   0.0 sec)
  promolecular density results
     # of electrons  =     23.997412964
     EX              =    -19.520477516
     EC              =     -0.772046821
     EX+EC           =    -20.292524337
Transforming the Hamiltonian                       ... done (   0.0 sec)
Diagonalizing the Hamiltonian                      ... done (   0.0 sec)
Back transforming the eigenvectors                 ... done (   0.0 sec)
Now organizing SCF variables                       ... done
                      ------------------
                      INITIAL GUESS DONE (   0.2 sec)
                      ------------------
             **** ENERGY FILE WAS UPDATED (orca.en.tmp) ****
Finished Guess after   1.0 sec
Maximum memory used throughout the entire GUESS-calculation: 9.7 MB
[1741192337.141476] [ohm:228943:0]        ib_iface.c:1059 UCX  ERROR ibv_create_cq(cqe=256) failed: Connection timed out
[1741192337.145554] [ohm:228947:0]        ib_iface.c:1059 UCX  ERROR ibv_create_cq(cqe=256) failed: Connection timed out
[1741192337.171135] [ohm:228946:0]        ib_iface.c:1059 UCX  ERROR ibv_create_cq(cqe=256) failed: Connection timed out
[1741192337.179044] [ohm:228949:0]        ib_iface.c:1059 UCX  ERROR ibv_create_cq(cqe=256) failed: Connection timed out
[1741192337.180522] [ohm:228955:0]        ib_iface.c:1059 UCX  ERROR ibv_create_cq(cqe=256) failed: Connection timed out
[1741192337.189919] [ohm:228951:0]        ib_iface.c:1059 UCX  ERROR ibv_create_cq(cqe=256) failed: Connection timed out
[1741192337.190103] [ohm:228945:0]        ib_iface.c:1059 UCX  ERROR ibv_create_cq(cqe=256) failed: Connection timed out
[1741192337.196501] [ohm:228962:0]        ib_iface.c:1059 UCX  ERROR ibv_create_cq(cqe=256) failed: Connection timed out
[1741192337.199236] [ohm:228967:0]        ib_iface.c:1059 UCX  ERROR ibv_create_cq(cqe=256) failed: Connection timed out
[1741192337.207264] [ohm:228944:0]        ib_iface.c:1059 UCX  ERROR ibv_create_cq(cqe=256) failed: Connection timed out
[1741192337.210111] [ohm:228953:0]        ib_iface.c:1059 UCX  ERROR ibv_create_cq(cqe=256) failed: Connection timed out
[1741192337.221280] [ohm:228965:0]        ib_iface.c:1059 UCX  ERROR ibv_create_cq(cqe=256) failed: Connection timed out
[1741192337.225671] [ohm:228950:0]        ib_iface.c:1059 UCX  ERROR ibv_create_cq(cqe=256) failed: Connection timed out
[1741192337.238776] [ohm:228948:0]        ib_iface.c:1059 UCX  ERROR ibv_create_cq(cqe=256) failed: Connection timed out
[1741192337.241265] [ohm:228958:0]        ib_iface.c:1059 UCX  ERROR ibv_create_cq(cqe=256) failed: Connection timed out
[1741192337.256487] [ohm:228969:0]        ib_iface.c:1059 UCX  ERROR ibv_create_cq(cqe=256) failed: Connection timed out


           ************************************************************
           *        Program running with 16 parallel MPI-processes    *
           *              working on a common directory               *
           ************************************************************

-------------------------------------------------------------------------------------------
                                      ORCA LEAN-SCF
                              memory conserving SCF solver
-------------------------------------------------------------------------------------------

----------------------------------------D-I-I-S--------------------------------------------
Iteration    Energy (Eh)           Delta-E    RMSDP     MaxDP     DIISErr   Damp  Time(sec)
-------------------------------------------------------------------------------------------
               ***  Starting incremental Fock matrix formation  ***
    1    -153.7838466321913415     0.00e+00  2.00e-03  4.66e-02  2.54e-01  0.700   0.3
    2    -153.8352324694394326    -5.14e-02  1.73e-03  4.39e-02  1.21e-01  0.700   0.2
                               ***Turning on AO-DIIS***
    3    -153.8584825475473963    -2.33e-02  1.28e-03  3.97e-02  5.55e-02  0.700   0.2
    4    -153.8724953122004990    -1.40e-02  3.09e-03  9.83e-02  3.29e-02  0.000   0.2
    5    -153.9034299822318133    -3.09e-02  1.93e-04  5.36e-03  5.81e-03  0.000   0.2
                              *** Initializing SOSCF ***
---------------------------------------S-O-S-C-F--------------------------------------
Iteration    Energy (Eh)           Delta-E    RMSDP     MaxDP     MaxGrad    Time(sec)
--------------------------------------------------------------------------------------
    6    -153.9035355425663170    -1.06e-04  1.11e-04  3.78e-03  2.53e-03     0.8
               *** Restarting incremental Fock matrix formation ***
    7    -153.9035432635825771    -7.72e-06  7.50e-05  1.83e-03  6.77e-04     0.4
    8    -153.9035490531513801    -5.79e-06  4.07e-05  1.04e-03  2.65e-04     0.3
    9    -153.9035501256173859    -1.07e-06  5.28e-06  1.26e-04  3.97e-05     0.3
   10    -153.9035501586019450    -3.30e-08  2.34e-06  4.70e-05  3.37e-05     0.3
   11    -153.9035501680556308    -9.45e-09  8.21e-07  2.98e-05  1.39e-05     0.3
                 **** Energy Check signals convergence ****

               *****************************************************
               *                     SUCCESS                       *
               *           SCF CONVERGED AFTER  11 CYCLES          *
               *****************************************************

Recomputing exchange energy using gridx3       ... done (    0.427 sec)
Old exchange energy                            :     -6.195999365 Eh
New exchange energy                            :     -6.196004271 Eh
Exchange energy change after final integration :     -0.000004906 Eh
Total energy after final integration           :   -153.903555074 Eh
             **** ENERGY FILE WAS UPDATED (orca.en.tmp) ****

----------------
TOTAL SCF ENERGY
----------------

Total Energy       :       -153.90355507448538 Eh           -4187.92864 eV

Components:
Nuclear Repulsion  :         68.98232823847886 Eh            1877.10458 eV
Electronic Energy  :       -222.88587840653452 Eh           -6065.03309 eV
One Electron Energy:       -344.41921723232264 Eh           -9372.12337 eV
Two Electron Energy:        121.53333882578814 Eh            3307.09028 eV

Virial components:
Potential Energy   :       -307.29194894407499 Eh           -8361.83904 eV
Kinetic Energy     :        153.38839386958963 Eh            4173.91039 eV
Virial Ratio       :          2.00335854096845

DFT components:
N(Alpha)           :       11.999992778691 electrons
N(Beta)            :       11.999992778691 electrons
N(Total)           :       23.999985557382 electrons
E(XC)              :      -14.745878198588 Eh       

---------------
SCF CONVERGENCE
---------------

  Last Energy change         ...    9.4537e-09  Tolerance :   1.0000e-08
  Last MAX-Density change    ...    2.9848e-05  Tolerance :   1.0000e-07
  Last RMS-Density change    ...    8.2123e-07  Tolerance :   5.0000e-09
  Last DIIS Error            ...    2.5274e-03  Tolerance :   5.0000e-07
  Last Orbital Gradient      ...    1.3895e-05  Tolerance :   1.0000e-05
  Last Orbital Rotation      ...    1.3264e-05  Tolerance :   1.0000e-05


----------------
ORBITAL ENERGIES
----------------

  NO   OCC          E(Eh)            E(eV) 
   0   2.0000     -19.345362      -526.4141 
   1   2.0000     -10.448308      -284.3129 
   2   2.0000     -10.372962      -282.2626 
   3   2.0000      -1.191243       -32.4154 
   4   2.0000      -0.900961       -24.5164 
   5   2.0000      -0.693596       -18.8737 
   6   2.0000      -0.594864       -16.1871 
   7   2.0000      -0.569344       -15.4926 
   8   2.0000      -0.563399       -15.3309 
   9   2.0000      -0.511908       -13.9297 
  10   2.0000      -0.483603       -13.1595 
  11   2.0000      -0.356127        -9.6907 
  12   0.0000       0.032044         0.8720 
  13   0.0000       0.058357         1.5880 
  14   0.0000       0.059095         1.6080 
  15   0.0000       0.080555         2.1920 
  16   0.0000       0.084554         2.3008 
  17   0.0000       0.105833         2.8799 
  18   0.0000       0.122131         3.3233 
  19   0.0000       0.124873         3.3980 
  20   0.0000       0.131509         3.5785 
  21   0.0000       0.158239         4.3059 
  22   0.0000       0.177856         4.8397 
*Only the first 10 virtual orbitals were printed.

                    ********************************
                    * MULLIKEN POPULATION ANALYSIS *
                    ********************************

-----------------------
MULLIKEN ATOMIC CHARGES
-----------------------
   0 O :   -0.456227
   1 C :    0.220967
   2 C :   -0.684772
   3 H :    0.182258
   4 H :    0.247445
   5 H :    0.242572
   6 H :    0.247756
Sum of atomic charges:   -0.0000000

--------------------------------
MULLIKEN REDUCED ORBITAL CHARGES
--------------------------------
  0 O s       :     3.996013  s :     3.996013
      pz      :     1.566891  p :     4.422358
      px      :     1.450772
      py      :     1.404695
      dz2     :     0.003068  d :     0.036057
      dxz     :     0.006442
      dyz     :     0.005479
      dx2y2   :     0.012361
      dxy     :     0.008707
      f0      :     0.000236  f :     0.001798
      f+1     :     0.000130
      f-1     :     0.000143
      f+2     :     0.000022
      f-2     :     0.000339
      f+3     :     0.000429
      f-3     :     0.000500

  1 C s       :     3.223277  s :     3.223277
      pz      :     0.847990  p :     2.364785
      px      :     0.756396
      py      :     0.760399
      dz2     :     0.003698  d :     0.174435
      dxz     :     0.010248
      dyz     :     0.078697
      dx2y2   :     0.076082
      dxy     :     0.005710
      f0      :     0.001902  f :     0.016536
      f+1     :     0.001530
      f-1     :     0.001062
      f+2     :     0.000481
      f-2     :     0.003451
      f+3     :     0.003355
      f-3     :     0.004754

  2 C s       :     3.410385  s :     3.410385
      pz      :     1.174341  p :     3.211401
      px      :     0.937005
      py      :     1.100055
      dz2     :     0.013883  d :     0.061377
      dxz     :     0.020296
      dyz     :     0.013258
      dx2y2   :     0.005171
      dxy     :     0.008769
      f0      :     0.000120  f :     0.001608
      f+1     :     0.000278
      f-1     :    -0.000002
      f+2     :     0.000241
      f-2     :     0.000354
      f+3     :     0.000210
      f-3     :     0.000408

  3 H s       :     0.779820  s :     0.779820
      pz      :     0.011275  p :     0.035354
      px      :     0.007410
      py      :     0.016669
      dz2     :     0.000486  d :     0.002568
      dxz     :     0.000434
      dyz     :     0.000600
      dx2y2   :     0.000572
      dxy     :     0.000477

  4 H s       :     0.712725  s :     0.712725
      pz      :     0.010598  p :     0.037538
      px      :     0.004658
      py      :     0.022282
      dz2     :     0.000258  d :     0.002291
      dxz     :     0.000169
      dyz     :     0.000622
      dx2y2   :     0.000506
      dxy     :     0.000736

  5 H s       :     0.707695  s :     0.707695
      pz      :     0.022024  p :     0.047538
      px      :     0.015751
      py      :     0.009764
      dz2     :     0.000579  d :     0.002195
      dxz     :     0.000451
      dyz     :     0.000430
      dx2y2   :     0.000426
      dxy     :     0.000309

  6 H s       :     0.712444  s :     0.712444
      pz      :     0.013345  p :     0.037509
      px      :     0.009802
      py      :     0.014362
      dz2     :     0.000700  d :     0.002291
      dxz     :     0.000569
      dyz     :     0.000525
      dx2y2   :     0.000214
      dxy     :     0.000284



                     *******************************
                     * LOEWDIN POPULATION ANALYSIS *
                     *******************************

----------------------
LOEWDIN ATOMIC CHARGES
----------------------
   0 O :    0.078114
   1 C :   -0.241733
   2 C :    0.172097
   3 H :    0.015630
   4 H :   -0.006049
   5 H :   -0.012052
   6 H :   -0.006006

-------------------------------
LOEWDIN REDUCED ORBITAL CHARGES
-------------------------------
  0 O s       :     3.375558  s :     3.375558
      pz      :     1.407161  p :     4.310028
      px      :     1.445289
      py      :     1.457578
      dz2     :     0.022820  d :     0.229823
      dxz     :     0.022383
      dyz     :     0.050359
      dx2y2   :     0.066867
      dxy     :     0.067394
      f0      :     0.000686  f :     0.006477
      f+1     :     0.000577
      f-1     :     0.000620
      f+2     :     0.000137
      f-2     :     0.001048
      f+3     :     0.001585
      f-3     :     0.001824

  1 C s       :     2.702850  s :     2.702850
      pz      :     0.748253  p :     2.439929
      px      :     0.859778
      py      :     0.831898
      dz2     :     0.097095  d :     1.004234
      dxz     :     0.147134
      dyz     :     0.208378
      dx2y2   :     0.288753
      dxy     :     0.262873
      f0      :     0.010100  f :     0.094721
      f+1     :     0.009280
      f-1     :     0.007284
      f+2     :     0.003846
      f-2     :     0.018852
      f+3     :     0.019682
      f-3     :     0.025676

  2 C s       :     2.654234  s :     2.654234
      pz      :     0.926454  p :     2.722629
      px      :     0.887994
      py      :     0.908181
      dz2     :     0.053009  d :     0.422651
      dxz     :     0.148610
      dyz     :     0.045843
      dx2y2   :     0.091929
      dxy     :     0.083259
      f0      :     0.003392  f :     0.028389
      f+1     :     0.005026
      f-1     :     0.002662
      f+2     :     0.003869
      f-2     :     0.003466
      f+3     :     0.004374
      f-3     :     0.005600

  3 H s       :     0.701615  s :     0.701615
      pz      :     0.092300  p :     0.255840
      px      :     0.070272
      py      :     0.093268
      dz2     :     0.004795  d :     0.026915
      dxz     :     0.005029
      dyz     :     0.008144
      dx2y2   :     0.004805
      dxy     :     0.004142

  4 H s       :     0.689936  s :     0.689936
      pz      :     0.083254  p :     0.285033
      px      :     0.077180
      py      :     0.124599
      dz2     :     0.003872  d :     0.031080
      dxz     :     0.001782
      dyz     :     0.008843
      dx2y2   :     0.007990
      dxy     :     0.008593

  5 H s       :     0.710826  s :     0.710826
      pz      :     0.103337  p :     0.271538
      px      :     0.083855
      py      :     0.084345
      dz2     :     0.007966  d :     0.029688
      dxz     :     0.006933
      dyz     :     0.005809
      dx2y2   :     0.004517
      dxy     :     0.004463

  6 H s       :     0.689935  s :     0.689935
      pz      :     0.115437  p :     0.284999
      px      :     0.091323
      py      :     0.078239
      dz2     :     0.009104  d :     0.031072
      dxz     :     0.008812
      dyz     :     0.007089
      dx2y2   :     0.002744
      dxy     :     0.003323



                      *****************************
                      * MAYER POPULATION ANALYSIS *
                      *****************************

  NA   - Mulliken gross atomic population
  ZA   - Total nuclear charge
  QA   - Mulliken gross atomic charge
  VA   - Mayer's total valence
  BVA  - Mayer's bonded valence
  FA   - Mayer's free valence

  ATOM       NA         ZA         QA         VA         BVA        FA
  0 O      8.4562     8.0000    -0.4562     1.8232     1.8232     0.0000
  1 C      5.7790     6.0000     0.2210     3.4904     3.4904     0.0000
  2 C      6.6848     6.0000    -0.6848     3.7456     3.7456    -0.0000
  3 H      0.8177     1.0000     0.1823     0.9838     0.9838     0.0000
  4 H      0.7526     1.0000     0.2474     0.9634     0.9634    -0.0000
  5 H      0.7574     1.0000     0.2426     1.0277     1.0277    -0.0000
  6 H      0.7522     1.0000     0.2478     0.9629     0.9629    -0.0000

  Mayer bond orders larger than 0.100000
B(  0-O ,  1-C ) :   1.7769 B(  1-C ,  2-C ) :   0.7618 B(  1-C ,  3-H ) :   1.0306 
B(  2-C ,  4-H ) :   0.9790 B(  2-C ,  5-H ) :   0.9674 B(  2-C ,  6-H ) :   0.9784 


-------
TIMINGS
-------

Total SCF time: 0 days 0 hours 0 min 5 sec 

Total time                  ....       5.019 sec
Sum of individual times     ....       4.993 sec  ( 99.5%)

SCF preparation             ....       0.887 sec  ( 17.7%)
Fock matrix formation       ....       3.345 sec  ( 66.6%)
  Startup                   ....       0.033 sec  (  1.0% of F)
  Split-RI-J                ....       0.194 sec  (  5.8% of F)
  Chain of spheres X        ....       2.280 sec  ( 68.2% of F)
  XC integration            ....       0.754 sec  ( 22.5% of F)
    XC Preparation          ....       0.000 sec  (  0.0% of XC)
    Basis function eval.    ....       0.078 sec  ( 10.4% of XC)
    Density eval.           ....       0.190 sec  ( 25.2% of XC)
    XC-Functional eval.     ....       0.029 sec  (  3.9% of XC)
    XC-Potential eval.      ....       0.263 sec  ( 34.8% of XC)
Diagonalization             ....       0.000 sec  (  0.0%)
Density matrix formation    ....       0.028 sec  (  0.6%)
Total Energy calculation    ....       0.059 sec  (  1.2%)
Population analysis         ....       0.015 sec  (  0.3%)
Orbital Transformation      ....       0.021 sec  (  0.4%)
Orbital Orthonormalization  ....       0.000 sec  (  0.0%)
DIIS solution               ....       0.541 sec  ( 10.8%)
SOSCF solution              ....       0.096 sec  (  1.9%)
Finished LeanSCF after   5.0 sec

Maximum memory used throughout the entire LEANSCF-calculation: 13.4 MB
[1741192342.757650] [ohm:229027:0]        ib_iface.c:1059 UCX  ERROR ibv_create_cq(cqe=256) failed: Connection timed out
[1741192342.778195] [ohm:229032:0]        ib_iface.c:1059 UCX  ERROR ibv_create_cq(cqe=256) failed: Connection timed out
[1741192342.789514] [ohm:229047:0]        ib_iface.c:1059 UCX  ERROR ibv_create_cq(cqe=256) failed: Connection timed out
[1741192342.794156] [ohm:229033:0]        ib_iface.c:1059 UCX  ERROR ibv_create_cq(cqe=256) failed: Connection timed out
[1741192342.797800] [ohm:229030:0]        ib_iface.c:1059 UCX  ERROR ibv_create_cq(cqe=256) failed: Connection timed out
[1741192342.801152] [ohm:229039:0]        ib_iface.c:1059 UCX  ERROR ibv_create_cq(cqe=256) failed: Connection timed out
[1741192342.802591] [ohm:229031:0]        ib_iface.c:1059 UCX  ERROR ibv_create_cq(cqe=256) failed: Connection timed out
[1741192342.804431] [ohm:229034:0]        ib_iface.c:1059 UCX  ERROR ibv_create_cq(cqe=256) failed: Connection timed out
[1741192342.807345] [ohm:229041:0]        ib_iface.c:1059 UCX  ERROR ibv_create_cq(cqe=256) failed: Connection timed out
[1741192342.812625] [ohm:229037:0]        ib_iface.c:1059 UCX  ERROR ibv_create_cq(cqe=256) failed: Connection timed out
[1741192342.821605] [ohm:229028:0]        ib_iface.c:1059 UCX  ERROR ibv_create_cq(cqe=256) failed: Connection timed out
[1741192342.823499] [ohm:229029:0]        ib_iface.c:1059 UCX  ERROR ibv_create_cq(cqe=256) failed: Connection timed out
[1741192342.837198] [ohm:229054:0]        ib_iface.c:1059 UCX  ERROR ibv_create_cq(cqe=256) failed: Connection timed out
[1741192342.838389] [ohm:229044:0]        ib_iface.c:1059 UCX  ERROR ibv_create_cq(cqe=256) failed: Connection timed out
[1741192342.838989] [ohm:229035:0]        ib_iface.c:1059 UCX  ERROR ibv_create_cq(cqe=256) failed: Connection timed out
[1741192342.871173] [ohm:229050:0]        ib_iface.c:1059 UCX  ERROR ibv_create_cq(cqe=256) failed: Connection timed out


           ************************************************************
           *        Program running with 16 parallel MPI-processes    *
           *              working on a common directory               *
           ************************************************************

------------------------------------------------------------------------------
                         ORCA PROPERTY INTEGRAL CALCULATIONS
------------------------------------------------------------------------------

GBWName                                   ... orca.gbw
Number of atoms                           ...      7
Number of basis functions                 ...    182
Max core memory                           ...   1024 MB

Dipole integrals                          ... YES
Quadrupole integrals                      ...  NO
Linear momentum integrals                 ... YES
Angular momentum integrals                ... YES
Higher moments length integrals           ...  NO
Higher moments velocity integrals         ...  NO
Kinetic energy integrals                  ...  NO
GIAO right hand sides                     ...  NO
GIAO dipole derivative integrals          ...  NO
SOC integrals                             ...  NO
EPR diamagnetic integrals (GIAO)          ...  NO
EPR gauge integrals                       ...  NO
Field gradient integrals                  ...  NO (   0 nuclei)
Spin-dipole/Fermi contact integrals       ...  NO (   0 nuclei)
Contact density integrals                 ...  NO (   0 nuclei)
Nucleus-orbit integrals                   ...  NO (   0 nuclei)
Geometric perturbations                   ...  NO (   7 nuclei)

Choice of electric origin   ... Center of mass
Position of electric origin ... (  1.5448,  0.0980,  0.0091) 
Choice of magnetic origin   ... GIAO
Position of magnetic origin ... (  0.0000,  0.0000,  0.0000) 

Calculating integrals                     ... Electric Dipole (Length)     done (  0.4 sec)
Calculating integrals                     ... Linear Momentum              done (  0.3 sec)
Calculating integrals                     ... Angular Momentum  (ElOri)    done (  0.0 sec)

Property integrals calculated in   0.7 sec

Maximum memory used throughout the entire PROPINT-calculation: 10.1 MB
[1741192345.853026] [ohm:229112:0]        ib_iface.c:1059 UCX  ERROR ibv_create_cq(cqe=256) failed: Connection timed out
[1741192345.866429] [ohm:229116:0]        ib_iface.c:1059 UCX  ERROR ibv_create_cq(cqe=256) failed: Connection timed out
[1741192345.875892] [ohm:229110:0]        ib_iface.c:1059 UCX  ERROR ibv_create_cq(cqe=256) failed: Connection timed out
[1741192345.879227] [ohm:229113:0]        ib_iface.c:1059 UCX  ERROR ibv_create_cq(cqe=256) failed: Connection timed out
[1741192345.884296] [ohm:229115:0]        ib_iface.c:1059 UCX  ERROR ibv_create_cq(cqe=256) failed: Connection timed out
[1741192345.899233] [ohm:229114:0]        ib_iface.c:1059 UCX  ERROR ibv_create_cq(cqe=256) failed: Connection timed out
[1741192345.906357] [ohm:229117:0]        ib_iface.c:1059 UCX  ERROR ibv_create_cq(cqe=256) failed: Connection timed out
[1741192345.907662] [ohm:229118:0]        ib_iface.c:1059 UCX  ERROR ibv_create_cq(cqe=256) failed: Connection timed out
[1741192345.908362] [ohm:229121:0]        ib_iface.c:1059 UCX  ERROR ibv_create_cq(cqe=256) failed: Connection timed out
[1741192345.912908] [ohm:229119:0]        ib_iface.c:1059 UCX  ERROR ibv_create_cq(cqe=256) failed: Connection timed out
[1741192345.919175] [ohm:229134:0]        ib_iface.c:1059 UCX  ERROR ibv_create_cq(cqe=256) failed: Connection timed out
[1741192345.919484] [ohm:229132:0]        ib_iface.c:1059 UCX  ERROR ibv_create_cq(cqe=256) failed: Connection timed out
[1741192345.920047] [ohm:229129:0]        ib_iface.c:1059 UCX  ERROR ibv_create_cq(cqe=256) failed: Connection timed out
[1741192345.926809] [ohm:229111:0]        ib_iface.c:1059 UCX  ERROR ibv_create_cq(cqe=256) failed: Connection timed out
[1741192345.935583] [ohm:229126:0]        ib_iface.c:1059 UCX  ERROR ibv_create_cq(cqe=256) failed: Connection timed out
[1741192345.972735] [ohm:229138:0]        ib_iface.c:1059 UCX  ERROR ibv_create_cq(cqe=256) failed: Connection timed out


           ************************************************************
           *        Program running with 16 parallel MPI-processes    *
           *              working on a common directory               *
           ************************************************************
------------------------------------------------------------------------------
                        ORCA TD-DFT/TDA CALCULATION
------------------------------------------------------------------------------

Input orbitals are from        ... orca.gbw
CI-vector output               ... orca.cis
Solver                         ... FN-2001
Tamm-Dancoff approximation     ... operative
CIS-Integral strategy          ... AO-integrals
Integral handling              ... AO integral Direct
Max. core memory used          ... 512 MB
Reference state                ... RHF
Generation of triplets         ... off
Follow IRoot                   ... off
Number of operators            ... 1
Orbital ranges used for CIS calculation:
 Operator 0:  Orbitals   3... 11  to  12...181
XAS localization array:
 Operator 0:  Orbitals  -1... -1

-------------------
XC-INTEGRATION GRID
-------------------

General Integration Accuracy     IntAcc      ... 3.467
Radial Grid Type                 RadialGrid  ... OptM3 with GC (2021)
Angular Grid (max. ang.)         AngularGrid ... 1 (Lebedev-50)
Angular grid pruning method      GridPruning ... 4 (adaptive)
Weight generation scheme         WeightScheme... mBecke (2022)
Basis function cutoff            BFCut       ... 1.0000e-11
Integration weight cutoff        WCut        ... 1.0000e-14
Partially contracted basis set               ... off
Rotationally invariant grid construction     ... off
Angular grids for H and He will be reduced by one unit
Diffuse basis detected: some atoms will have their outermost
                        angular grid increased by 1.

Total number of grid points                  ...     4732
Total number of batches                      ...       77
Average number of points per batch           ...       61
Average number of grid points per atom       ...      676

---------------------
COSX-INTEGRATION GRID
---------------------

General Integration Accuracy     IntAcc      ... 3.067
Radial Grid Type                 RadialGrid  ... OptM3 with GC (2021)
Angular Grid (max. ang.)         AngularGrid ... 1 (Lebedev-50)
Angular grid pruning method      GridPruning ... 4 (adaptive)
Weight generation scheme         WeightScheme... mBecke (2022)
Basis function cutoff            BFCut       ... 1.0000e-11
Integration weight cutoff        WCut        ... 1.0000e-14
Partially contracted basis set               ... on
Rotationally invariant grid construction     ... off
Angular grids for H and He will be reduced by one unit
Diffuse basis detected: some atoms will have their outermost
                        angular grid increased by 1.

Total number of grid points                  ...     2151
Total number of batches                      ...       22
Average number of points per batch           ...       97
Average number of grid points per atom       ...      307

---------------
TD-DFT XC SETUP
---------------

DFT calculation                         ... on
Name of the grid file                   ... orca.grid_cis.tmp
RI-approximation                        ... on
Aux-basis dimension                     ... 0
Functional (TD-DFT)
  Functional kind                       .... Exchange-Correlation
  Functional name                       .... wB97M-V exchange-correlation functional
  Functional family                     .... Hybrid MGGA
  Functional refs                              
    [ 0] N. Mardirossian and M. Head-Gordon.,  J. Chem. Phys. 144, 214110 (2016), doi: 10.1063/1.4952647
  Fraction of HF Exchange (short range) .... 0.1500
  Fraction of HF Exchange (long range)  .... 1.0000
  Range separation parameter mu         .... 0.3000
  Functional external parameters        .... 17
    Parameter  0 _cx00      =  8.500000e-01 : u^00 coefficient for exchange
    Parameter  1 _cx01      =  1.007000e+00 : u^01 coefficient for exchange
    Parameter  2 _cx10      =  2.590000e-01 : u^10 coefficient for exchange
    Parameter  3 _css00     =  4.430000e-01 : u^00 coefficient for same-spin correlation
    Parameter  4 _css04     = -1.437000e+00 : u^04 coefficient for same-spin correlation
    Parameter  5 _css10     = -4.535000e+00 : u^10 coefficient for same-spin correlation
    Parameter  6 _css20     = -3.390000e+00 : u^20 coefficient for same-spin correlation
    Parameter  7 _css43     =  4.278000e+00 : u^43 coefficient for same-spin correlation
    Parameter  8 _cos00     =  1.000000e+00 : u^00 coefficient for opposite-spin correlation
    Parameter  9 _cos10     =  1.358000e+00 : u^10 coefficient for opposite-spin correlation
    Parameter 10 _cos20     =  2.924000e+00 : u^20 coefficient for opposite-spin correlation
    Parameter 11 _cos21     = -8.812000e+00 : u^21 coefficient for opposite-spin correlation
    Parameter 12 _cos60     = -1.390000e+00 : u^60 coefficient for opposite-spin correlation
    Parameter 13 _cos61     =  9.142000e+00 : u^61 coefficient for opposite-spin correlation
    Parameter 14 _alpha     =  1.000000e+00 : fraction of HF exchange
    Parameter 15 _beta      = -8.500000e-01 : fraction of short-range exchange
    Parameter 16 _omega     =  3.000000e-01 : range-separation constant
Hybrid DFT                              ... on
   Exchange mixing (TD-DFT)             ...  0.150
   GGA exch. scaling (TD-DFT)           ...  0.000
   GGA corr. scaling (TD-DFT)           ...  1.000
Range-Separated Exchange                ... on
   Range Range separation parameter mu  .... 0.300
   Max. amount of RS exchange (TD-DFT)  ...  0.850

Building densities             ... done
Calculating rho(r) on the grid ... done
Building xc-kernel on the grid ... done
                    *** TD-DFT CALCULATION INITIALIZED ***

------------------------
DAVIDSON-DIAGONALIZATION
------------------------

Dimension of the eigenvalue problem            ...   1530
Number of roots to be determined               ...      4
Maximum size of the expansion space            ...     40
Maximum number of iterations                   ...    100
Convergence tolerance for the residual         ...    2.500e-07
Convergence tolerance for the energies         ...    2.500e-07
Orthogonality tolerance                        ...    1.000e-14
Level Shift                                    ...    0.000e+00
Constructing the preconditioner                ... o.k.
Building the initial guess                     ... o.k.
Number of trial vectors determined             ...     40


                       ****Iteration    0****
   Time for iteration     :  TOTAL=0.4 TRAFO=0.0 RIJ=0.1 COSX=0.2 XC=0.1
   Size of expansion space: 12
   Lowest Energy          :     0.160175701045
   Maximum Energy change  :     0.284299503309 (vector 3)
   Maximum residual norm  :     0.003831763557

                       ****Iteration    1****
   Time for iteration     :  TOTAL=0.2 TRAFO=0.0 RIJ=0.0 COSX=0.1 XC=0.1
   Size of expansion space: 16
   Lowest Energy          :     0.153588650944
   Maximum Energy change  :     0.007879617783 (vector 1)
   Maximum residual norm  :     0.001070084958

                       ****Iteration    2****
   Time for iteration     :  TOTAL=0.2 TRAFO=0.0 RIJ=0.0 COSX=0.1 XC=0.0
   Size of expansion space: 20
   Lowest Energy          :     0.153329543245
   Maximum Energy change  :     0.001483389655 (vector 1)
   Maximum residual norm  :     0.000062103690

                       ****Iteration    3****
   Time for iteration     :  TOTAL=0.4 TRAFO=0.0 RIJ=0.0 COSX=0.2 XC=0.1
   Size of expansion space: 24
   Lowest Energy          :     0.153307701434
   Maximum Energy change  :     0.000126788561 (vector 2)
   Maximum residual norm  :     0.000014079712

                       ****Iteration    4****
   Time for iteration     :  TOTAL=0.4 TRAFO=0.1 RIJ=0.1 COSX=0.1 XC=0.1
   Size of expansion space: 28
   Lowest Energy          :     0.153306564238
   Maximum Energy change  :     0.000023312274 (vector 2)
   Maximum residual norm  :     0.000003375957

                       ****Iteration    5****
   Time for iteration     :  TOTAL=0.2 TRAFO=0.0 RIJ=0.0 COSX=0.1 XC=0.1
   Size of expansion space: 32
   Lowest Energy          :     0.153306522749
   Maximum Energy change  :     0.000004093976 (vector 2)
   Maximum residual norm  :     0.000000337964

                       ****Iteration    6****
   Time for iteration     :  TOTAL=0.2 TRAFO=0.0 RIJ=0.0 COSX=0.1 XC=0.0
   Size of expansion space: 36
   Lowest Energy          :     0.153306520775
   Maximum Energy change  :     0.000000383144 (vector 2)
   Maximum residual norm  :     0.000000035407

      *** CONVERGENCE OF RESIDUAL NORM REACHED ***

Storing the converged CI vectors               ... orca.cis1

                 *** DAVIDSON DONE ***

Total time for solving the CIS problem:     3.059sec

------------------------------------
TD-DFT/TDA EXCITED STATES (SINGLETS)
------------------------------------

the weight of the individual excitations are printed if larger than 1.0e-02

STATE  1:  E=   0.153307 au      4.172 eV    33646.9 cm**-1 <S**2> =   0.000000 Mult 1
    11a ->  13a  :     0.968099 (c=  0.98392036)
    11a ->  26a  :     0.010532 (c= -0.10262717)

STATE  2:  E=   0.227311 au      6.185 eV    49888.9 cm**-1 <S**2> =   0.000000 Mult 1
    11a ->  12a  :     0.805689 (c= -0.89760171)
    11a ->  14a  :     0.129404 (c= -0.35972702)
    11a ->  23a  :     0.023827 (c= -0.15436141)
    11a ->  25a  :     0.011093 (c=  0.10532275)

STATE  3:  E=   0.269523 au      7.334 eV    59153.4 cm**-1 <S**2> =   0.000000 Mult 1
    11a ->  12a  :     0.104590 (c= -0.32340343)
    11a ->  14a  :     0.698038 (c=  0.83548680)
    11a ->  15a  :     0.088216 (c= -0.29701100)
    11a ->  17a  :     0.048967 (c=  0.22128430)
    11a ->  19a  :     0.021317 (c=  0.14600391)
    11a ->  29a  :     0.012422 (c=  0.11145490)

STATE  4:  E=   0.278270 au      7.572 eV    61073.2 cm**-1 <S**2> =   0.000000 Mult 1
    11a ->  16a  :     0.955945 (c=  0.97772459)


-----------------------------
TD-DFT/TDA-EXCITATION SPECTRA
-----------------------------

Center of mass = (  1.5448,  0.0980,  0.0091)
Generating CIS transition densities           ... done

----------------------------------------------------------------------------------------------------
                     ABSORPTION SPECTRUM VIA TRANSITION ELECTRIC DIPOLE MOMENTS    
----------------------------------------------------------------------------------------------------
     Transition      Energy     Energy  Wavelength fosc(D2)      D2        DX        DY        DZ   
                      (eV)      (cm-1)    (nm)                 (au**2)    (au)      (au)      (au)  
----------------------------------------------------------------------------------------------------
  0-1A  ->  1-1A    4.171683   33646.9   297.2   0.000344681   0.00337   0.02780  -0.02983  -0.04136
  0-1A  ->  2-1A    6.185440   49888.9   200.4   0.006703803   0.04424  -0.08712  -0.17807   0.07026
  0-1A  ->  3-1A    7.334082   59153.4   169.1   0.052515356   0.29227  -0.31045   0.22339  -0.38208
  0-1A  ->  4-1A    7.572113   61073.2   163.7   0.014000170   0.07547   0.13463  -0.12719  -0.20289

----------------------------------------------------------------------------------------------------
                     ABSORPTION SPECTRUM VIA TRANSITION VELOCITY DIPOLE MOMENTS    
----------------------------------------------------------------------------------------------------
     Transition      Energy     Energy  Wavelength fosc(P2)      P2        PX        PY        PZ   
                      (eV)      (cm-1)    (nm)                 (au**2)    (au)      (au)      (au)  
----------------------------------------------------------------------------------------------------
  0-1A  ->  1-1A    4.171683   33646.9   297.2   0.000014853   0.00000  -0.00034   0.00114   0.00141
  0-1A  ->  2-1A    6.185440   49888.9   200.4   0.001340588   0.00046   0.01368   0.01622  -0.00265
  0-1A  ->  3-1A    7.334082   59153.4   169.1   0.033340055   0.01348   0.07200  -0.04154   0.08106
  0-1A  ->  4-1A    7.572113   61073.2   163.7   0.006425519   0.00268  -0.02539   0.02334   0.03864

------------------------------------------------------------------------------------------
                     CD SPECTRUM VIA TRANSITION ELECTRIC DIPOLE MOMENTS    
------------------------------------------------------------------------------------------
     Transition      Energy     Energy  Wavelength    R        MX        MY        MZ   
                      (eV)      (cm-1)    (nm)   (1e40*cgs)   (au)      (au)      (au)  
------------------------------------------------------------------------------------------
  0-1A  ->  1-1A    4.171683   33646.9   297.2   -0.11238  -0.37442  -0.44100   0.06063
  0-1A  ->  2-1A    6.185440   49888.9   200.4    0.06473   0.08673  -0.09020  -0.12302
  0-1A  ->  3-1A    7.334082   59153.4   169.1    0.00167  -0.08716   0.09013   0.12353
  0-1A  ->  4-1A    7.572113   61073.2   163.7   -0.42338  -0.04674  -0.05334  -0.00200

------------------------------------------------------------------------------------------
                     CD SPECTRUM VIA TRANSITION VELOCITY DIPOLE MOMENTS    
------------------------------------------------------------------------------------------
     Transition      Energy     Energy  Wavelength    R        MX        MY        MZ   
                      (eV)      (cm-1)    (nm)   (1e40*cgs)   (au)      (au)      (au)  
------------------------------------------------------------------------------------------
  0-1A  ->  1-1A    4.171683   33646.9   297.2   -0.90047  -0.37442  -0.44100   0.06063
  0-1A  ->  2-1A    6.185440   49888.9   200.4    0.10215   0.08673  -0.09020  -0.12302
  0-1A  ->  3-1A    7.334082   59153.4   169.1   -0.01149  -0.08716   0.09013   0.12353
  0-1A  ->  4-1A    7.572113   61073.2   163.7   -0.22934  -0.04674  -0.05334  -0.00200

Total run time:        3.249 sec

           *** ORCA-CIS/TD-DFT FINISHED WITHOUT ERROR ***
-----------------------
CIS/TD-DFT TOTAL ENERGY
-----------------------

    E(SCF)  =   -153.903555074 Eh
    DE(CIS) =      0.153306521 Eh (Root  1)
    ----------------------------- ---------
    E(tot)  =   -153.750248554 Eh


------------------------
TD-DFT GRADIENT XC SETUP
------------------------

Building densities                     ... done
Calculating rho(r) on the grid         ... done
Building xc-kernel on the grid         ... done
Building xc 3rd derivative on the grid ... done
                *** TD-DFT GRADIENT CALCULATION INITIALIZED ***

--------------------------
TD-DFT/TDA RELAXED DENSITY
--------------------------

Reference wavefunction             ... RHF
State of interest                  ... 1
Basis dimension                    ... 182
DFT-XC contribution needed         ... YES
RI-approximation                   ... YES
Do Coulomb                         ... YES
Do Exchange                        ... YES
Need Hartree-Fock Exchange         ... YES
facj, facx                         ...  2.000, -0.150
Conventional                       ... NO
Range separation                   ... YES
Triplet state                      ... NO
Spin Flip                          ... NO
CIS-vectors being read from        ... orca.cis
 => Number of Vectors found: 4
 => Orbital Window: 3...11 -> 12...181

Reading the CIS file                     ... done
Norm of the CI vector                    ... 1.000000000
Making the CIS (pseudo)densities         ... done
Making operators G(D) and Q(T)           ... (SHARK-ok)done
Transforming the Fock operators          ... done
Making the frozen-core relaxed density   ... done
Constructing the G(H) operator           ... (SHARK-ok)done
Transforming the G(H) operator           ... done
Calculating the CIS Lagrangian           ... done
Solving the Z-vector equations           ... 

Using XC Grid                  ... (orca.grid_cpscf.tmp) 
Recalculating density on grid  ... (orca.grho_cpscf0.tmp) done
Calculating the xc-kernel      ... (orca.fxc_cpscf0.tmp) done

-------------------
SHARK CP-SCF DRIVER
-------------------

Dimension of the orbital basis          ...    182
Dimension of the CPSCF-problem          ...   2040
Number of operators                     ...      1
Max. number of iterations               ...    128
Convergence Tolerance                   ... 1.0e-04
Number of perturbations                 ...      1
Perturbation type                       ... REAL

----------------------------
POPLE LINEAR EQUATION SOLVER
----------------------------

  ITERATION   0:   ||err||_max =   8.0707e-01 (   0.2 sec)
  ITERATION   1:   ||err||_max =   3.6173e-02 (   0.2 sec)
  ITERATION   2:   ||err||_max =   1.1181e-02 (   0.1 sec)
  ITERATION   3:   ||err||_max =   2.6436e-03 (   0.2 sec)
  ITERATION   4:   ||err||_max =   8.9080e-04 (   0.2 sec)
  ITERATION   5:   ||err||_max =   2.1636e-04 (   0.2 sec)
  ITERATION   6:   ||err||_max =   4.8211e-05 (   0.2 sec)

Finalizing the relaxed density           ... done
Storing the relaxed density              ... done
Constructing the G(Z) operator           ... (SHARK-ok)done
Adding the XC terms                      ... done
Transforming the G(Z) operator           ... done
Making the W-matrix                      ... done
Finalizing the W-matrix                  ... done
Transforming the W-matrix                ... done
Nuc. rep. gradient        (SHARK) ... done (  0.0 sec)
HCore & Overlap gradient  (SHARK) ... done (  0.0 sec)
Split-RIJ-J gradient      (SHARK) ... done (  0.1 sec)
COSX-gradient                     ... done (  2.0 sec)
Dispersion correction             ... done (  0.0 sec)

-------------------
DISPERSION GRADIENT
-------------------

   1   O   :    0.000263401    0.000217600    0.000025836
   2   C   :    0.000129505    0.000047900    0.000055978
   3   C   :   -0.000119454   -0.000064014   -0.000037097
   4   H   :    0.000141706   -0.000009239    0.000106484
   5   H   :   -0.000076224   -0.000146328   -0.000079486
   6   H   :   -0.000170826    0.000004732   -0.000123348
   7   H   :   -0.000168108   -0.000050651    0.000051633

Difference to translation invariance:
           :    0.0000000000    0.0000000000    0.0000000000

Difference to rotation invariance:
           :    0.0000000000    0.0000000000    0.0000000000

Norm of the Dispersion gradient    ...    0.0005498133
RMS gradient                       ...    0.0001199791
MAX gradient                       ...    0.0002634008

                 ---------------------------
                 EXCITED STATE GRADIENT DONE
                 ---------------------------

------------------
CARTESIAN GRADIENT
------------------

   1   O   :   -0.055956871   -0.085157410    0.022031115
   2   C   :    0.049741672    0.090530350   -0.026546529
   3   C   :    0.003703856   -0.003379055    0.001286798
   4   H   :   -0.008071657   -0.003029400   -0.003529133
   5   H   :    0.007318151    0.002879074    0.004788249
   6   H   :   -0.005760854   -0.003743558   -0.001148341
   7   H   :    0.008878969    0.001723131    0.003086373

Difference to translation invariance:
           :   -0.0001467349   -0.0001768675   -0.0000314684

Difference to rotation invariance:
           :   -0.0001541010   -0.0036104072    0.0041317892

Norm of the Cartesian gradient     ...    0.1502704945
RMS gradient                       ...    0.0327917103
MAX gradient                       ...    0.0905303501

------------------------------------------------------------------------------
                  RELAXED CIS/TDA DENSITY POPULATION ANALYSIS
[...]
      f+1     :     0.008770
      f-1     :     0.009011
      f+2     :     0.003736
      f-2     :     0.022151
      f+3     :     0.022634
      f-3     :     0.028073
  2 C s       :     2.643952  s :     2.643952
      pz      :     0.925352  p :     2.684249
      px      :     0.851877
      py      :     0.907021
      dz2     :     0.052945  d :     0.491563
      dxz     :     0.159089
      dyz     :     0.065657
      dx2y2   :     0.133014
      dxy     :     0.080858
      f0      :     0.003297  f :     0.033019
      f+1     :     0.007226
      f-1     :     0.002902
      f+2     :     0.003598
      f-2     :     0.004557
      f+3     :     0.006235
      f-3     :     0.005205
  3 H s       :     0.636309  s :     0.636309
      pz      :     0.107835  p :     0.285989
      px      :     0.080817
      py      :     0.097337
      dz2     :     0.008133  d :     0.029935
      dxz     :     0.004816
      dyz     :     0.007530
      dx2y2   :     0.004698
      dxy     :     0.004758
  4 H s       :     0.698368  s :     0.698368
      pz      :     0.084060  p :     0.291891
      px      :     0.079128
      py      :     0.128702
      dz2     :     0.003876  d :     0.030624
      dxz     :     0.001781
      dyz     :     0.008793
      dx2y2   :     0.007906
      dxy     :     0.008268
  5 H s       :     0.702884  s :     0.702884
      pz      :     0.103967  p :     0.271734
      px      :     0.082456
      py      :     0.085311
      dz2     :     0.008195  d :     0.029579
      dxz     :     0.006886
      dyz     :     0.005692
      dx2y2   :     0.004270
      dxy     :     0.004537
  6 H s       :     0.698317  s :     0.698317
      pz      :     0.115653  p :     0.291852
      px      :     0.097416
      py      :     0.078782
      dz2     :     0.008894  d :     0.030615
      dxz     :     0.008638
      dyz     :     0.007138
      dx2y2   :     0.002689
      dxy     :     0.003256


                      *****************************
                      * MAYER POPULATION ANALYSIS *
                      *****************************

  NA   - Mulliken gross atomic population
  ZA   - Total nuclear charge
  QA   - Mulliken gross atomic charge
  VA   - Mayer's total valence
  BVA  - Mayer's bonded valence
  FA   - Mayer's free valence

  ATOM       NA         ZA         QA         VA         BVA        FA
  0 O      8.3715     8.0000    -0.3715     1.9669     1.1994     0.7675
  1 C      5.8443     6.0000     0.1557     3.4028     2.5388     0.8641
  2 C      6.6400     6.0000    -0.6400     3.6811     3.5804     0.1007
  3 H      0.8542     1.0000     0.1458     1.0096     0.8508     0.1588
  4 H      0.7653     1.0000     0.2347     1.0143     0.9925     0.0219
  5 H      0.7587     1.0000     0.2413     1.0116     0.9976     0.0140
  6 H      0.7659     1.0000     0.2341     1.0136     0.9919     0.0217

  Mayer bond orders larger than 0.100000
B(  0-O ,  1-C ) :   1.1462 B(  1-C ,  2-C ) :   0.6451 B(  1-C ,  3-H ) :   0.8466 
B(  2-C ,  4-H ) :   1.0066 B(  2-C ,  5-H ) :   0.9275 B(  2-C ,  6-H ) :   1.0050 



-------
TIMINGS
-------

Total TD-DFT gradient time  ....        4.883 sec

Fock matrix formation       ....       1.141 sec  ( 23.4%)
  Coulomb formation         ....       0.869 sec  ( 76.1% of F)
  XC integration            ....       0.273 sec  ( 23.9% of F)
Z-vector equation           ....       1.100 sec  ( 22.5%)
Densities                   ....       0.000 sec  (  0.0%)
One electron gradient       ....       0.010 sec  (  0.2%)
Two electron gradient       ....       0.000 sec  (  0.0%)
RI-J Coulomb gradient       ....       0.100 sec  (  2.0%)
COSX gradient               ....       0.367 sec  (  7.5%)
XC gradient                 ....       1.959 sec  ( 40.1%)

Maximum memory used throughout the entire CIS-calculation: 34.8 MB
=> NOW LEAVING ORCA_CIS


-------------------------------------------------------------------------------
                          DFT DISPERSION CORRECTION                            
                                                                               
                              DFTD3 V3.1  Rev 1                                
                          USING Becke-Johnson damping                          
-------------------------------------------------------------------------------
The WB97M functional is recognized
Active option DFTDOPT                   ...         4   

molecular C6(AA) [au] = 395.131526 


            DFT-D V3
 parameters
 s6 scaling factor         :     1.0000 
 a1 scaling factor         :     0.5660 
 s8 scaling factor         :     0.3908 
 a2 scaling factor         :     3.1280 
 ad hoc parameters k1-k3   :    16.0000     1.3333    -4.0000 

 Edisp/kcal,au: -3.442941243312  -0.005486675530 
 E6   /kcal   :  -2.779139513 
 E8   /kcal   :  -0.663801730 
 % E8         :  19.280077206 

-------------------------   ----------------
Dispersion correction           -0.005486676
-------------------------   ----------------


-------------------------   --------------------
FINAL SINGLE POINT ENERGY      -153.755735229240
-------------------------   --------------------

[1741192355.025456] [ohm:229199:0]        ib_iface.c:1059 UCX  ERROR ibv_create_cq(cqe=256) failed: Connection timed out
[1741192355.026386] [ohm:229197:0]        ib_iface.c:1059 UCX  ERROR ibv_create_cq(cqe=256) failed: Connection timed out
[1741192355.040758] [ohm:229198:0]        ib_iface.c:1059 UCX  ERROR ibv_create_cq(cqe=256) failed: Connection timed out
[1741192355.045505] [ohm:229196:0]        ib_iface.c:1059 UCX  ERROR ibv_create_cq(cqe=256) failed: Connection timed out
[1741192355.045689] [ohm:229194:0]        ib_iface.c:1059 UCX  ERROR ibv_create_cq(cqe=256) failed: Connection timed out
[1741192355.053634] [ohm:229200:0]        ib_iface.c:1059 UCX  ERROR ibv_create_cq(cqe=256) failed: Connection timed out
[1741192355.054178] [ohm:229206:0]        ib_iface.c:1059 UCX  ERROR ibv_create_cq(cqe=256) failed: Connection timed out
[1741192355.061144] [ohm:229195:0]        ib_iface.c:1059 UCX  ERROR ibv_create_cq(cqe=256) failed: Connection timed out
[1741192355.061444] [ohm:229214:0]        ib_iface.c:1059 UCX  ERROR ibv_create_cq(cqe=256) failed: Connection timed out
[1741192355.062616] [ohm:229201:0]        ib_iface.c:1059 UCX  ERROR ibv_create_cq(cqe=256) failed: Connection timed out
[1741192355.069084] [ohm:229207:0]        ib_iface.c:1059 UCX  ERROR ibv_create_cq(cqe=256) failed: Connection timed out
[1741192355.069264] [ohm:229202:0]        ib_iface.c:1059 UCX  ERROR ibv_create_cq(cqe=256) failed: Connection timed out
[1741192355.073957] [ohm:229204:0]        ib_iface.c:1059 UCX  ERROR ibv_create_cq(cqe=256) failed: Connection timed out
[1741192355.075383] [ohm:229224:0]        ib_iface.c:1059 UCX  ERROR ibv_create_cq(cqe=256) failed: Connection timed out
[1741192355.076710] [ohm:229210:0]        ib_iface.c:1059 UCX  ERROR ibv_create_cq(cqe=256) failed: Connection timed out
[1741192355.118226] [ohm:229219:0]        ib_iface.c:1059 UCX  ERROR ibv_create_cq(cqe=256) failed: Connection timed out


           ************************************************************
           *        Program running with 16 parallel MPI-processes    *
           *              working on a common directory               *
           ************************************************************

------------------------------------------------------------------------------
                              ORCA PROPERTY CALCULATIONS
------------------------------------------------------------------------------

GBWName                                 ... orca.gbw
Number of atoms                         ...      7
Number of basis functions               ...    182
Max core memory                         ...   1024 MB

Electric properties:
Dipole moment                           ... YES
Quadrupole moment                       ...  NO
Static polarizability (Dipole/Dipole)   ...  NO
Static polarizability (Dipole/Quad.)    ...  NO
Static polarizability (Quad./Quad.)     ...  NO
Static polarizability (Velocity)        ...  NO

Atomic electric properties:
Dipole moment                           ...  NO
Quadrupole moment                       ...  NO
Static polarizability                   ...  NO

Choice of electric origin               ... Center of mass
Position of electric origin             ...     1.544776     0.097956     0.009075

General magnetic properties:
Magnetizability                         ...  NO

EPR properties:
g-Tensor (aka g-matrix)                 ...  NO
Zero-Field splitting spin-orbit         ...  NO
Zero-field splitting spin-spin          ...  NO
Hyperfine couplings                     ...  NO (   0 nuclei)
Quadrupole couplings                    ...  NO (   0 nuclei)
Contact density                         ...  NO (   0 nuclei)

NMR properties:
Chemical shifts                         ...  NO (   0 nuclei)
Spin-rotation constants                 ...  NO (   0 nuclei)
Spin-spin couplings                     ...  NO (   0 nuclei,    0 pairs)

Choice of magnetic origin               ... GIAO
Position of magnetic origin             ...     0.000000     0.000000     0.000000

Properties with geometric perturbations:
SCF Hessian                             ...  NO
IR spectrum                             ...  NO
VCD spectrum                            ...  NO
X-ray spectroscopy properties:
SCF XES/XAS/RIXS spectra                ...  NO


-------------
DIPOLE MOMENT
-------------

Method             : SCF
Type of density    : Electron Density
Multiplicity       :   1
Irrep              :   0
Energy             :  -153.9035550744853822 Eh
Relativity type    : 
Basis              : AO
                                X                 Y                 Z
Electronic contribution:      2.612627617       2.491958403       0.011885285
Nuclear contribution   :     -3.500278474      -3.344423937      -0.011725797
                        -----------------------------------------
Total Dipole Moment    :     -0.887650857      -0.852465534       0.000159488
                        -----------------------------------------
Magnitude (a.u.)       :      1.230699620
Magnitude (Debye)      :      3.128189833



--------------------
Rotational spectrum 
--------------------
 
Rotational constants in cm-1:             2.711834             0.292381             0.277425 
Rotational constants in MHz :         81298.741623          8765.361225          8316.982912 

Dipole components along the rotational axes: 
x,y,z [a.u.] :     1.209516     0.227363    -0.000117 
x,y,z [Debye]:     3.074344     0.577910    -0.000298 

 

-------------
DIPOLE MOMENT
-------------

Method             : TDA/CIS
Type of density    : Electron Density
Level              : Relaxed density
State              :   1
Multiplicity       :   1
Irrep              :   0
Energy             :     0.0000000000000000 Eh
Relativity type    : 
Basis              : AO
                                X                 Y                 Z
Electronic contribution:      2.869864428       2.689195361       0.047658835
Nuclear contribution   :     -3.500278474      -3.344423937      -0.011725797
                        -----------------------------------------
Total Dipole Moment    :     -0.630414046      -0.655228575       0.035933038
                        -----------------------------------------
Magnitude (a.u.)       :      0.909965679
Magnitude (Debye)      :      2.312948944



--------------------
Rotational spectrum 
--------------------
 
Rotational constants in cm-1:             2.711834             0.292381             0.277425 
Rotational constants in MHz :         81298.741623          8765.361225          8316.982912 

Dipole components along the rotational axes: 
x,y,z [a.u.] :     0.883541     0.217698    -0.000554 
x,y,z [Debye]:     2.245783     0.553344    -0.001409 

 

Dipole moment calculation done in   0.4 sec 

Maximum memory used throughout the entire PROP-calculation: 7.3 MB
[1741192356.868917] [ohm:229280:0]        ib_iface.c:1059 UCX  ERROR ibv_create_cq(cqe=256) failed: Connection timed out
[1741192356.877054] [ohm:229282:0]        ib_iface.c:1059 UCX  ERROR ibv_create_cq(cqe=256) failed: Connection timed out
[1741192356.886553] [ohm:229278:0]        ib_iface.c:1059 UCX  ERROR ibv_create_cq(cqe=256) failed: Connection timed out
[1741192356.888999] [ohm:229284:0]        ib_iface.c:1059 UCX  ERROR ibv_create_cq(cqe=256) failed: Connection timed out
[1741192356.891856] [ohm:229287:0]        ib_iface.c:1059 UCX  ERROR ibv_create_cq(cqe=256) failed: Connection timed out
[1741192356.904997] [ohm:229277:0]        ib_iface.c:1059 UCX  ERROR ibv_create_cq(cqe=256) failed: Connection timed out
[1741192356.908665] [ohm:229279:0]        ib_iface.c:1059 UCX  ERROR ibv_create_cq(cqe=256) failed: Connection timed out
[1741192356.909415] [ohm:229285:0]        ib_iface.c:1059 UCX  ERROR ibv_create_cq(cqe=256) failed: Connection timed out
[1741192356.916192] [ohm:229283:0]        ib_iface.c:1059 UCX  ERROR ibv_create_cq(cqe=256) failed: Connection timed out
[1741192356.917135] [ohm:229294:0]        ib_iface.c:1059 UCX  ERROR ibv_create_cq(cqe=256) failed: Connection timed out
[1741192356.921568] [ohm:229281:0]        ib_iface.c:1059 UCX  ERROR ibv_create_cq(cqe=256) failed: Connection timed out
[1741192356.924945] [ohm:229289:0]        ib_iface.c:1059 UCX  ERROR ibv_create_cq(cqe=256) failed: Connection timed out
[1741192356.943711] [ohm:229297:0]        ib_iface.c:1059 UCX  ERROR ibv_create_cq(cqe=256) failed: Connection timed out
[1741192356.958483] [ohm:229301:0]        ib_iface.c:1059 UCX  ERROR ibv_create_cq(cqe=256) failed: Connection timed out
[1741192356.981443] [ohm:229306:0]        ib_iface.c:1059 UCX  ERROR ibv_create_cq(cqe=256) failed: Connection timed out
[1741192356.981597] [ohm:229300:0]        ib_iface.c:1059 UCX  ERROR ibv_create_cq(cqe=256) failed: Connection timed out

--------------------------------
SUGGESTED CITATIONS FOR THIS RUN
--------------------------------

Below you find a list of papers that are relevant to this ORCA run
We neither can nor want to force you to cite these papers, but we appreciate if you do
You receive ORCA, which is the product of decades of hard work by many enthusiastic individuals, for free
The only thing we kindly ask in return is that you cite our papers,
We deeply appreciate it, if you show your appreciation for ORCA by not just citing the generic ORCA reference.

Please note that relegating all ORCA citations to the supporting information does *not* help us.
SI sections are not indexed - citations you put there will not count into any citation statistics
But we need these citations in order to attract the funding resources that allow us to do what we are doing

Therefore, if you are a happy ORCA user, please consider citing a few of the papers listed below in the main body of your paper

In addition to the list printed below, the program has created the file orca.bibtex that contains the list in bibtex format
You can import this file easily into all common literature databanks and citation aid programs


List of essential papers. We consider these as the minimum necessary citations

  1. Neese,F.
     Software update: the ORCA program system, version 5.0
     WIRES Comput. Molec. Sci., 2022 12(1)e1606
     doi.org/10.1002/wcms.1606

List of papers to cite with high priority. The work reported in these papers was absolutely
necessary for this run to complete.
Our perspective: the developers of density functionals and basis sets usually get cited in chemistry papers
Good! But without the algorithms to do something with them, the functionals or basis sets would not do anything.
Hence, in our opinion, the algorithm design and method developments papers are equally worthy of getting cited

  1. Neese,F.; Olbrich,G.
     Efficient use of the resolution of the identity approximation in time-dependent density functional calculations with hybrid density functionals
     Chem. Phys. Lett., 2002 362 170-178
     doi.org/10.1016/s0009-2614(02)01053-9
  2. Neese,F.
     An improvement of the resolution of the identity approximation for the formation of the Coulomb matrix
     J. Comp. Chem., 2003 24(14)1740-1747
     doi.org/10.1002/jcc.10318
  3. Neese,F.; Wennmohs,F.; Hansen,A.; Becker,U.
     Efficient, approximate and parallel Hartree-Fock and hybrid DFT calculations. A 'chain-of-spheres' algorithm for the Hartree-Fock exchange
     Chem. Phys., 2009 356(1-3)98-109
     doi.org/10.1016/j.chemphys.2008.10.036
  4. Petrenko,T.; Kossmann,S.; Neese,F.
     Efficient time-dependent density functional theory approximations for hybrid density functionals: Analytical gradients and parallelization
     J. Chem. Phys., 2011 134 054116
     doi.org/10.1063/1.3533441
  5. Helmich-Paris,B.; de Souza,B.; Neese,F.; Izsák,R.
     An improved chain of spheres for exchange algorithm
     J. Chem. Phys., 2021 155 104109
     doi.org/doi: 10.1063/5.0058766.
  6. Neese,F.
     The SHARK Integral Generation and Digestion System
     J. Comp. Chem., 2022  1-16
     doi.org/10.1002/jcc.26942
  7. Lehtola,S.; Steigemann,C.; Oliveira,M.; Marques,M.
     Recent developments in Libxc - A comprehensive library of functionals for density functional theory
     Software X, 2018 7 
     doi.org/10.1016/j.softx.2017.11.002
  8. Grimme,S.; Antony,J.; Ehrlich,S.; Krieg,H.
     A consistent and accurate ab initio parametrization of density functional dispersion correction (DFT-D) for the 94 elements H-Pu
     J. Chem. Phys., 2010 132 154104-XXXX
     doi.org/10.1063/1.3382344
  9. Grimme,S.; Ehrlich,S.; Goerigk,L.
     Effect of the damping function in dispersion corrected density functional theory
     J. Comput. Chem., 2011 32(7)1456-1465
     doi.org/10.1002/jcc.21759

List of suggested additional citations. These are papers that are important in the 'surrounding' of 
of this run, or papers that preceded the highly important papers. If you like your results we are grateful for a citation.

  1. Izsak,R.; Neese,F.
     An overlap fitted chain of spheres exchange method
     J. Chem. Phys., 2011 135 144105
     doi.org/10.1063/1.3646921
  2. Izsak,R.; Hansen,A.; Neese,F.
     The resolution of identity and chain of spheres approximations for the LPNO-CCSD singles Fock term
     Molec. Phys., 2012 110 2413-2417
     doi.org/10.1080/00268976.2012.687466
  3. Neese,F.
     The ORCA program system
     WIRES Comput. Molec. Sci., 2012 2(1)73-78
     doi.org/10.1002/wcms.81
  4. Izsak,R.; Neese,F.; Klopper,W.
     Robust fitting techniques in the chain of spheres approximation to the Fock exchange: The role of the complementary space
     J. Chem. Phys., 2013 139 
     doi.org/10.1063/1.4819264
  5. Neese,F.
     Software update: the ORCA program system, version 4.0
     WIRES Comput. Molec. Sci., 2018 8(1)1-6
     doi.org/10.1002/wcms.1327
  6. Neese,F.; Wennmohs,F.; Becker,U.; Riplinger,C.
     The ORCA quantum chemistry program package
     J. Chem. Phys., 2020 152 Art. No. L224108
     doi.org/10.1063/5.0004608

List of optional additional citations

  1. Neese,F.
     Approximate second-order SCF convergence for spin unrestricted wavefunctions
     Chem. Phys. Lett., 2000 325(1-3)93-98
     doi.org/10.1016/s0009-2614(00)00662-x

Timings for individual modules:

Sum of individual times          ...       23.128 sec (=   0.385 min)
Startup calculation              ...        1.961 sec (=   0.033 min)   8.5 %
SCF iterations                   ...        6.994 sec (=   0.117 min)  30.2 %
Property integrals               ...        3.033 sec (=   0.051 min)  13.1 %
Property calculations            ...        1.806 sec (=   0.030 min)   7.8 %
CIS module                       ...        9.333 sec (=   0.156 min)  40.4 %
                             ****ORCA TERMINATED NORMALLY****
TOTAL RUN TIME: 0 days 0 hours 0 minutes 24 seconds 359 msec
