7
Properties=species:S:1:pos:R:3:momenta:R:3:forces:R:3 Coordinates=T from=T ORCA-job=T orca=T E=T -153.851947508303=T energy=-4183.198766601674 free_energy=-4183.198766601674 stress="1.2450470946409021e-05 -1.0119439012007848e-06 -3.067773542156319e-06 -1.0119439012007848e-06 1.976808225219052e-06 4.968215619304751e-07 -3.067773542156319e-06 4.968215619304751e-07 1.340383306800291e-06" pbc="F F F"
O        0.19898713       1.08646712       0.00322677       0.91370839       0.36812889      -0.20585850       0.91869521      -0.07951613      -0.35372265
C        0.63422062      -0.24731424      -0.10734284      -0.94398733       1.92250291      -0.21041469      -0.54644976      -0.07015600       0.93546125
C       -0.76000506      -0.98097083       0.10859470       0.15424996      -1.75882866      -0.18620519       2.83130486       1.06169212      -0.46908090
H        1.41577957      -0.42669007       0.67235744      -0.12995512       0.02663286       0.09874756      -0.75005701       0.01235180      -0.16715444
H        1.24959863      -0.39578715      -1.01750996      -0.00328082       0.04185019       0.11898069      -0.94495463      -0.01036933       0.03988417
H       -1.28613699      -0.97475077      -0.81303198      -0.13675959      -0.22133440       0.24983589      -0.76348732      -0.37618095       0.00266794
H       -1.11891758      -0.57555437       1.03513017       0.14602451      -0.37895180       0.13491423      -0.74505136      -0.53782151       0.01194462
