30
Properties=species:S:1:pos:R:3:momenta:R:3:forces:R:3 Coordinates=T from=T ORCA-job=T orca=T E=T -908.929076301761=T energy=-24729.164847513115 free_energy=-24729.164847513115 stress="1.9214275014858637e-06 1.0965869128392847e-06 -1.1777973082376526e-06 1.0965869128392847e-06 1.5863364704653183e-06 -5.976148883009075e-07 -1.1777973082376526e-06 -5.976148883009075e-07 -5.975222405883653e-07" pbc="F F F"
O        2.94063903       1.25966878      -0.48770123       0.22054797       0.46408102       0.16488115      -0.38570801      -0.69226867       0.37844801
O       -0.52985717       0.42496032      -1.88040462      -0.22559663      -0.11088293      -0.04248100      -0.08690839       0.12437632      -0.23034902
O        1.40267064      -2.83733071      -1.76901223      -0.20114644      -0.11271839       0.03332983       0.35413068      -0.03390559      -0.73612015
O       -3.13221888      -1.36995945       1.36597094      -0.08410455       0.07687395      -0.13276425      -0.00858398      -0.32653785       0.23739231
N        0.74050304      -1.99413649       0.23358534       0.01876996       0.08421015      -0.12526498      -0.28852808      -0.65647880      -0.29236806
N       -2.33282148       0.74315132       1.65902081       0.10502585       0.03274478       0.00054551       0.21185158      -0.08635435      -0.49619284
N        2.19902000      -0.81527097      -1.08706819      -0.05130718      -0.18079562       0.13840639       0.31349781       1.55357489       0.89579633
N       -1.93320190      -0.39086201      -0.30293383      -0.12070129      -0.00742566      -0.07264954      -0.18730438       0.12995648      -0.19785216
C        1.46361317       0.17946310       0.98076256       0.57630772       0.45870732      -0.11496461      -3.13024663      -4.63003541       2.33123982
C       -0.90519335       1.76983398       0.04740073      -0.04261753       0.04677066      -0.11141820      -0.32271648       0.09415714       0.12250705
C        0.74029967      -1.02820029       1.18654451      -0.49627137      -0.75056134       0.27671504       2.27342071       4.11684489      -2.27805141
C       -1.58062289       1.80584701       1.19859090       0.10746027      -0.02449055       0.04378495       0.19080326      -0.33435671      -0.15996686
C        1.55416015       1.21086418       2.03238617      -0.02274717       0.11170175      -0.19535032       0.98116841       0.34612377       0.14658548
C       -0.09763732       2.90909281      -0.48760287       0.10050610       0.02720990      -0.02382818       0.07949880       0.00230218      -0.13246432
C        2.23776052       0.28020038      -0.21322806      -0.07640081      -0.00081118       0.07464036       1.25559732       0.69295579      -2.19634534
C       -1.06801709       0.59171127      -0.80783221       0.08912924       0.10094853       0.16385220      -0.08272195      -0.31007276       0.05854872
C        1.44856225      -1.94642220      -0.95505954       0.03796932       0.13240385       0.07861151      -1.51201527      -1.32648680       1.66733228
C       -2.51814508      -0.42653871       0.94231090       0.04944556      -0.23873344      -0.04301241       0.67731105       0.32565374      -0.19850939
H        0.17491892      -1.21415735       2.06624256       0.00220165      -0.13425653       0.11867843      -0.03739739      -0.17900070       0.83834231
H       -1.54020382       2.65780918       1.84945186      -0.03784737       0.05166534      -0.00293287      -0.12373628       0.18186906       0.11338251
H        1.37355479       2.18809637       1.60998707       0.04158111      -0.00804471       0.03717106       0.02831013       0.15884407       0.05330213
H        0.87534931       1.01023406       2.85228632       0.04859558      -0.01184016      -0.02080281      -0.06741308       0.05544260       0.08723936
H        2.58930311       1.23438470       2.40605939       0.04789661      -0.00721022      -0.09858124      -0.33556413       0.14091220       0.03090393
H       -0.49069478       3.22373735      -1.45083059      -0.01386366      -0.03597404      -0.07938884      -0.00288420       0.02533052      -0.04506133
H       -0.10088946       3.75019636       0.19470838      -0.00263664      -0.04431746      -0.02747058      -0.09777825       0.09776109       0.11809305
H        0.94373857       2.63571705      -0.65253983      -0.01252211       0.04359875       0.03505687      -0.06174034      -0.01125573      -0.02123833
H        0.19548302      -2.84731224       0.37336941       0.02182009      -0.05933700      -0.03225913       0.25037054       0.47151304      -0.33026282
H       -2.78500948       0.76639495       2.54992446      -0.03478004      -0.05428343       0.04498976      -0.03062709       0.03272501       0.09171992
H        2.67225797      -0.68271682      -1.96300738      -0.01142192       0.12280721      -0.02429162       0.06531124      -0.04161950      -0.08517103
H       -2.05058519      -1.21674474      -0.87918651      -0.03329233       0.02795945      -0.06320247       0.08060241       0.07803008       0.22911984
