
                                 *****************
                                 * O   R   C   A *
                                 *****************

                                            #,                                       
                                            ###                                      
                                            ####                                     
                                            #####                                    
                                            ######                                   
                                           ########,                                 
                                     ,,################,,,,,                         
                               ,,#################################,,                 
                          ,,##########################################,,             
                       ,#########################################, ''#####,          
                    ,#############################################,,   '####,        
                  ,##################################################,,,,####,       
                ,###########''''           ''''###############################       
              ,#####''   ,,,,##########,,,,          '''####'''          '####       
            ,##' ,,,,###########################,,,                        '##       
           ' ,,###''''                  '''############,,,                           
         ,,##''                                '''############,,,,        ,,,,,,###''
      ,#''                                            '''#######################'''  
     '                                                          ''''####''''         
             ,#######,   #######,   ,#######,      ##                                
            ,#'     '#,  ##    ##  ,#'     '#,    #''#        ,####,   ,####,        
            ##       ##  ##   ,#'  ##            #'  '#       #'       #'  '#        
            ##       ##  #######   ##           ,######,      #####,   #    #        
            '#,     ,#'  ##    ##  '#,     ,#' ,#      #,     #,   #   #,  ,#        
             '#######'   ##     ##  '#######'  #'      '#     '####' # '####'        



                #########################################################
                #                        -***-                          #
                #          Department of theory and spectroscopy        #
                #                                                       #
                #                      Frank Neese                      #
                #                                                       #
                #     Directorship, Architecture, Infrastructure        #
                #                    SHARK, DRIVERS                     #
                #        Core code/Algorithms in most modules           #
                #                                                       #
                #        Max Planck Institute fuer Kohlenforschung      #
                #                Kaiser Wilhelm Platz 1                 #
                #                 D-45470 Muelheim/Ruhr                 #
                #                      Germany                          #
                #                                                       #
                #                  All rights reserved                  #
                #                        -***-                          #
                #########################################################


                         Program Version 6.0.0  -   RELEASE  -


 With contributions from (in alphabetic order):
   Daniel Aravena         : Magnetic Suceptibility
   Michael Atanasov       : Ab Initio Ligand Field Theory (pilot matlab implementation)
   Alexander A. Auer      : GIAO ZORA, VPT2 properties, NMR spectrum
   Ute Becker             : All parallelization in ORCA, NUMFREQ, NUMCALC
   Giovanni Bistoni       : ED, misc. LED, open-shell LED, HFLD
   Martin Brehm           : Molecular dynamics
   Dmytro Bykov           : pre 5.0 version of the SCF Hessian
   Marcos Casanova-Páez   : Triplet and SCS-CIS(D). UHF-(DLPNO)-IP/EA/STEOM-CCSD. UHF-CVS-IP/STEOM-CCSD
   Vijay G. Chilkuri      : MRCI spin determinant printing, contributions to CSF-ICE
   Pauline Colinet        : FMM embedding
   Dipayan Datta          : RHF DLPNO-CCSD density
   Achintya Kumar Dutta   : EOM-CC, STEOM-CC
   Nicolas Foglia         : Exact transition moments, OPA infrastructure, MCD improvements
   Dmitry Ganyushin       : Spin-Orbit,Spin-Spin,Magnetic field MRCI
   Miquel Garcia          : C-PCM and meta-GGA Hessian, CCSD/C-PCM, Gaussian charge scheme
   Tiago L. C. Gouveia    : GS-ROHF, GS-ROCIS
   Yang Guo               : DLPNO-NEVPT2, F12-NEVPT2, CIM, IAO-localization
   Andreas Hansen         : Spin unrestricted coupled pair/coupled cluster methods
   Ingolf Harden          : AUTO-CI MPn and infrastructure 
   Benjamin Helmich-Paris : MC-RPA, TRAH-(SCF,CASSCF), AVAS, COSX integrals, SCF dyn. polar.
   Lee Huntington         : MR-EOM, pCC
   Robert Izsak           : Overlap fitted RIJCOSX, COSX-SCS-MP3, EOM
   Riya Kayal             : Wick's Theorem for AUTO-CI, AUTO-CI UHF-CCSDT
   Emily Kempfer          : AUTO-CI, RHF CISDT and CCSDT
   Christian Kollmar      : KDIIS, OOCD, Brueckner-CCSD(T), CCSD density, CASPT2, CASPT2-K, improved NEVPT2
   Axel Koslowski         : Symmetry handling
   Simone Kossmann        : Meta GGA functionals, TD-DFT gradient, OOMP2, (MP2 Hessian; deprecated post 5.0)
   Lucas Lang             : DCDCAS
   Marvin Lechner         : AUTO-CI (C++ implementation), FIC-MRCC
   Spencer Leger          : CASSCF response
   Dagmar Lenk            : GEPOL surface, SMD, ORCA-2-JSON
   Dimitrios Liakos       : Extrapolation schemes; Compound Job, initial MDCI parallelization
   Dimitrios Manganas     : Further ROCIS development; embedding schemes. LFT, Crystal Embedding
   Dimitrios Pantazis     : SARC Basis sets
   Anastasios Papadopoulos: AUTO-CI, single reference methods and gradients
   Taras Petrenko         : pre 6.0 DFT Hessian and TD-DFT gradient, (ASA, deprecated), ECA, 1-Electron XAS/XES, NRVS
   Peter Pinski           : DLPNO-MP2, DLPNO-MP2 Gradient
   Christoph Reimann      : Effective Core Potentials
   Marius Retegan         : Local ZFS, SOC
   Christoph Riplinger    : Optimizer, TS searches, QM/MM, DLPNO-CCSD(T), (RO)-DLPNO pert. Triples
   Michael Roemelt        : Original ROCIS implementation
   Masaaki Saitow         : Open-shell DLPNO-CCSD energy and density
   Barbara Sandhoefer     : DKH picture change effects
   Kantharuban Sivalingam : CASSCF convergence/infrastructure, NEVPT2 and variants, FIC-MRCI
   Bernardo de Souza      : ESD, SOC TD-DFT
   Georgi Stoychev        : AutoAux, RI-MP2 NMR, DLPNO-MP2 response, X2C
   Van Anh Tran           : RI-MP2 g-tensors
   Willem Van den Heuvel  : Paramagnetic NMR
   Zikuan Wang            : NOTCH, Electric field optimization 
   Frank Wennmohs         : Technical directorship and infrastructure
   Hang Xu                : AUTO-CI-Response properties 


 We gratefully acknowledge several colleagues who have allowed us to
 interface, adapt or use parts of their codes:
   Stefan Grimme, W. Hujo, H. Kruse, P. Pracht,  : VdW corrections, initial TS optimization,
                  C. Bannwarth, S. Ehlert,         DFT functionals, gCP, sTDA/sTD-DF
                  L. Wittmann, M. Mueller
   Ed Valeev, F. Pavosevic, A. Kumar             : LibInt (2-el integral package), F12 methods
   Garnet Chan, S. Sharma, J. Yang, R. Olivares  : DMRG
   Ulf Ekstrom                                   : XCFun DFT Library
   Mihaly Kallay                                 : mrcc  (arbitrary order and MRCC methods)
   Frank Weinhold                                : gennbo (NPA and NBO analysis)
   Simon Mueller                                 : openCOSMO-RS
   Christopher J. Cramer and Donald G. Truhlar   : smd solvation model
   Lars Goerigk                                  : TD-DFT with DH, B97 family of functionals
   V. Asgeirsson, H. Jonsson                     : NEB implementation
   FAccTs GmbH                                   : IRC, NEB, NEB-TS, DLPNO-Multilevel, CI-OPT
                                                   MM, QMMM, 2- and 3-layer-ONIOM, Crystal-QMMM,
                                                   LR-CPCM, SF, NACMEs, symmetry and pop. for TD-DFT,
                                                   nearIR, NL-DFT gradient (VV10), updates on ESD,
                                                   ML-optimized integration grids, MBIS, APM,
                                                   GOAT, DOCKER, SOLVATOR, interface openCOSMO-RS
   S Lehtola, MJT Oliveira, MAL Marques          : LibXC Library
   Liviu Ungur et al                             : ANISO software


 Your calculation uses the libint2 library for the computation of 2-el integrals
 For citations please refer to: http://libint.valeyev.net

 Your ORCA version has been built with support for libXC version: 6.2.2
 For citations please refer to: https://libxc.gitlab.io

 This ORCA versions uses:
   CBLAS   interface :  Fast vector & matrix operations
   LAPACKE interface :  Fast linear algebra routines
   SCALAPACK package :  Parallel linear algebra routines
   Shared memory     :  Shared parallel matrices
   BLAS/LAPACK       :  OpenBLAS 0.3.27  USE64BITINT DYNAMIC_ARCH NO_AFFINITY Zen SINGLE_THREADED
        Core in use  :  Zen
   Copyright (c) 2011-2014, The OpenBLAS Project


Your calculation utilizes the atom-pairwise dispersion correction
with the Becke-Johnson damping scheme (D3BJ)


Warning: RI is on but no J-basis has been assigned. Assigning Def2/J (nothing to worry about!)
================================================================================

----- Orbital basis set information -----
Your calculation utilizes the basis: def2-TZVPPD
   F. Weigend and R. Ahlrichs, Phys. Chem. Chem. Phys. 7, 3297 (2005).
   D. Rappoport and F. Furche, J. Chem. Phys. 133, 134105 (2010)
   D. Rappoport, J. Chem. Phys. 155, 124102 (2021).

----- AuxJ basis set information -----
Your calculation utilizes the auxiliary basis: def2/J
   F. Weigend, Phys. Chem. Chem. Phys. 8, 1057 (2006).

================================================================================
                                        WARNINGS
                       Please study these warnings very carefully!
================================================================================

Using LibXC functional ID 531 : wB97M-V exchange-correlation functional
[ 1]  N. Mardirossian and M. Head-Gordon.,  J. Chem. Phys. 144, 214110 (2016)
Using LibXC functional ID 531 : wB97M-V exchange-correlation functional
[ 1]  N. Mardirossian and M. Head-Gordon.,  J. Chem. Phys. 144, 214110 (2016)

WARNING: B97M-V or wB97M-V functional requested.
  ===> : libXC variant has now been activated.
         Any manually given DFX/HFX/RangeSep scaling parameters are IGNORED!

Your calculation utilizes LibXC
 by S Lehtola, C Steigemann, MJT Oliveira & MAL Marques
Please cite in your paper:
 S Lehtola, C Steigemann, MJT Oliveira & MAL Marques, SoftwareX, 7, (2018), 1.
   


WARNING: your system is open-shell and RHF/RKS was chosen
  ===> : WILL SWITCH to UHF/UKS

INFO   : Checking CIS options ...

WARNING: CIS/ROCIS methods need fully converged wavefunctions
  ===> : Setting SCFConvForced true
         You can overwrite this default with %scf ConvForced false 


================================================================================
                                       INPUT FILE
================================================================================
NAME = orca.inp
|  1> ! Engrad def2-TZVPPD wB97M-D3BJ 
|  2> %pal nprocs 8 end%pal nprocs 64 end 
|  3> %tddft Nroots 2 Iroot 1 
|  4> sf true 
|  5> end 
|  6> *xyz 0 3 
|  7> O   2.98104474 1.16988282 -0.65066552
|  8> O   -0.59669904 0.57108862 -2.00886
|  9> O   1.13876946 -2.90326846 -1.7147405
| 10> O   -2.93777001 -1.40555415 1.28255229
| 11> N   0.6605954 -2.03565814 0.32123788
| 12> N   -2.36056975 0.76140654 1.63837588
| 13> N   1.94088662 -0.83562915 -1.11719412
| 14> N   -2.0735708 -0.25716475 -0.45416433
| 15> C   1.72947151 0.0076832 1.06608918
| 16> C   -1.04743121 1.8862098 -0.03772442
| 17> C   0.90877748 -1.08211572 1.31022136
| 18> C   -1.65350376 1.86102674 1.26549781
| 19> C   2.20228214 0.90666214 2.16263264
| 20> C   -0.15774545 3.08685711 -0.38211094
| 21> C   2.27449126 0.22907476 -0.24079442
| 22> C   -1.22597398 0.76334408 -0.94789703
| 23> C   1.27785437 -1.98408479 -0.88585509
| 24> C   -2.49736292 -0.39310639 0.83911008
| 25> H   0.38935051 -1.32277598 2.20558843
| 26> H   -1.71471889 2.70780395 1.97598398
| 27> H   2.10290857 1.91160874 1.92105506
| 28> H   1.62235667 0.66443775 3.03358731
| 29> H   3.21985113 0.74753793 2.33752808
| 30> H   -0.32265958 3.40403707 -1.43038671
| 31> H   -0.36159831 3.92035737 0.25785297
| 32> H   0.89098648 2.80941566 -0.35512592
| 33> H   0.08129604 -2.92894516 0.41036517
| 34> H   -2.82170952 0.6534013 2.5494529
| 35> H   2.20116969 -0.73785734 -2.08777163
| 36> H   -2.00063179 -1.21863854 -0.86427711
| 37> *
| 38> 
| 39>                          ****END OF INPUT****
================================================================================

                     *******************************
                     * Energy+Gradient Calculation *
                     *******************************

---------------------------------
CARTESIAN COORDINATES (ANGSTROEM)
---------------------------------
  O      2.981045    1.169883   -0.650666
  O     -0.596699    0.571089   -2.008860
  O      1.138769   -2.903268   -1.714741
  O     -2.937770   -1.405554    1.282552
  N      0.660595   -2.035658    0.321238
  N     -2.360570    0.761407    1.638376
  N      1.940887   -0.835629   -1.117194
  N     -2.073571   -0.257165   -0.454164
  C      1.729472    0.007683    1.066089
  C     -1.047431    1.886210   -0.037724
  C      0.908777   -1.082116    1.310221
  C     -1.653504    1.861027    1.265498
  C      2.202282    0.906662    2.162633
  C     -0.157745    3.086857   -0.382111
  C      2.274491    0.229075   -0.240794
  C     -1.225974    0.763344   -0.947897
  C      1.277854   -1.984085   -0.885855
  C     -2.497363   -0.393106    0.839110
  H      0.389351   -1.322776    2.205588
  H     -1.714719    2.707804    1.975984
  H      2.102909    1.911609    1.921055
  H      1.622357    0.664438    3.033587
  H      3.219851    0.747538    2.337528
  H     -0.322660    3.404037   -1.430387
  H     -0.361598    3.920357    0.257853
  H      0.890986    2.809416   -0.355126
  H      0.081296   -2.928945    0.410365
  H     -2.821710    0.653401    2.549453
  H      2.201170   -0.737857   -2.087772
  H     -2.000632   -1.218639   -0.864277

----------------------------
CARTESIAN COORDINATES (A.U.)
----------------------------
  NO LB      ZA    FRAG     MASS         X           Y           Z
   0 O     8.0000    0    15.999    5.633358    2.210758   -1.229580
   1 O     8.0000    0    15.999   -1.127598    1.079201   -3.796195
   2 O     8.0000    0    15.999    2.151962   -5.486382   -3.240390
   3 O     8.0000    0    15.999   -5.551581   -2.656112    2.423673
   4 N     7.0000    0    14.007    1.248344   -3.846836    0.607052
   5 N     7.0000    0    14.007   -4.460830    1.438850    3.096082
   6 N     7.0000    0    14.007    3.667744   -1.579110   -2.111191
   7 N     7.0000    0    14.007   -3.918481   -0.485971   -0.858246
   8 C     6.0000    0    12.011    3.268228    0.014519    2.014617
   9 C     6.0000    0    12.011   -1.979358    3.564420   -0.071289
  10 C     6.0000    0    12.011    1.717341   -2.044902    2.475960
  11 C     6.0000    0    12.011   -3.124669    3.516831    2.391444
  12 C     6.0000    0    12.011    4.161710    1.713343    4.086783
  13 C     6.0000    0    12.011   -0.298096    5.833315   -0.722085
  14 C     6.0000    0    12.011    4.298166    0.432889   -0.455036
  15 C     6.0000    0    12.011   -2.316755    1.442511   -1.791266
  16 C     6.0000    0    12.011    2.414795   -3.749377   -1.674024
  17 C     6.0000    0    12.011   -4.719332   -0.742863    1.585688
  18 H     1.0000    0     1.008    0.735766   -2.499684    4.167958
  19 H     1.0000    0     1.008   -3.240349    5.117008    3.734069
  20 H     1.0000    0     1.008    3.973921    3.612417    3.630268
  21 H     1.0000    0     1.008    3.065810    1.255605    5.732649
  22 H     1.0000    0     1.008    6.084637    1.412642    4.417288
  23 H     1.0000    0     1.008   -0.609738    6.432698   -2.703039
  24 H     1.0000    0     1.008   -0.683322    7.408402    0.487271
  25 H     1.0000    0     1.008    1.683720    5.309026   -0.671091
  26 H     1.0000    0     1.008    0.153627   -5.534904    0.775478
  27 H     1.0000    0     1.008   -5.332258    1.234750    4.817768
  28 H     1.0000    0     1.008    4.159608   -1.394348   -3.945317
  29 H     1.0000    0     1.008   -3.780646   -2.302893   -1.633247

--------------------------------
INTERNAL COORDINATES (ANGSTROEM)
--------------------------------
 O      0   0   0     0.000000000000     0.00000000     0.00000000
 O      1   0   0     3.873434818709     0.00000000     0.00000000
 O      2   1   0     3.894806068872    72.53353832     0.00000000
 O      2   1   3     4.496790498737   106.98775038    70.59431678
 N      3   2   1     2.264200976692    68.40648998    70.92018385
 N      4   2   1     2.270570236604    64.07789095    68.90581834
 N      5   3   2     2.268986955333    60.88543652   303.41070185
 N      4   2   1     2.254289934055     9.10445625   146.21759609
 C      7   5   3     2.350020858728    63.25988719   187.80646262
 C      6   4   2     2.408075458660   118.38069991   358.15937228
 C      9   7   5     1.385929615176    86.25866570   359.08292140
 C      6   4   2     1.359464951203   149.44995569   350.30035906
 C      9   7   5     1.494697489820   150.33611974   162.91419907
 C     10   6   4     1.533524303594   146.96927244   196.00219172
 C      1   2   3     1.245926139254    58.31953809   318.01362026
 C      2   1   3     1.248435635395    98.26648429   105.64946115
 C      3   2   1     1.245509636372    56.06055080    38.63654621
 C      4   2   1     1.189810852724    32.90828989    79.18819834
 H     11   9   7     1.062734175581   128.01765367   182.06523217
 H     12   6   4     1.107054440069   114.45028367   186.13368546
 H     13   9   7     1.038341226392   112.40467644    65.26881485
 H     13   9   7     1.074033632183   106.76612697   186.97321266
 H     13   9   7     1.044679653554   109.83572951   307.22097822
 H     14  10   6     1.107556719662   110.51067962   215.11885246
 H     14  10   6     1.070435648721   111.40076524   335.60137015
 H     14  10   6     1.085145432872   110.78920387   100.48194402
 H      5   3   2     1.068406815038    82.48080309   120.10519979
 H      6   4   2     1.026828299043    85.66996868   181.61043117
 H      7   5   3     1.009617405891   143.71898804    18.74902071
 H      8   4  18     1.047828440326    81.99704242   167.42448746

---------------------------
INTERNAL COORDINATES (A.U.)
---------------------------
 O      0   0   0     0.000000000000     0.00000000     0.00000000
 O      1   0   0     7.319731004954     0.00000000     0.00000000
 O      2   1   0     7.360116814902    72.53353832     0.00000000
 O      2   1   3     8.497702524232   106.98775038    70.59431678
 N      3   2   1     4.278719758106    68.40648998    70.92018385
 N      4   2   1     4.290755915013    64.07789095    68.90581834
 N      5   3   2     4.287763947020    60.88543652   303.41070185
 N      4   2   1     4.259990601819     9.10445625   146.21759609
 C      7   5   3     4.440895831999    63.25988719   187.80646262
 C      6   4   2     4.550603126684   118.38069991   358.15937228
 C      9   7   5     2.619027413574    86.25866570   359.08292140
 C      6   4   2     2.569016446438   149.44995569   350.30035906
 C      9   7   5     2.824568908819   150.33611974   162.91419907
 C     10   6   4     2.897940953506   146.96927244   196.00219172
 C      1   2   3     2.354459186284    58.31953809   318.01362026
 C      2   1   3     2.359201446724    98.26648429   105.64946115
 C      3   2   1     2.353672109903    56.06055080    38.63654621
 C      4   2   1     2.248416662817    32.90828989    79.18819834
 H     11   9   7     2.008276545006   128.01765367   182.06523217
 H     12   6   4     2.092029707073   114.45028367   186.13368546
 H     13   9   7     1.962180551440   112.40467644    65.26881485
 H     13   9   7     2.029629423447   106.76612697   186.97321266
 H     13   9   7     1.974158442898   109.83572951   307.22097822
 H     14  10   6     2.092978877945   110.51067962   215.11885246
 H     14  10   6     2.022830220069   111.40076524   335.60137015
 H     14  10   6     2.050627683604   110.78920387   100.48194402
 H      5   3   2     2.018996280037    82.48080309   120.10519979
 H      6   4   2     1.940424271751    85.66996868   181.61043117
 H      7   5   3     1.907900397173   143.71898804    18.74902071
 H      8   4  18     1.980108787550    81.99704242   167.42448746

---------------------
BASIS SET INFORMATION
---------------------
There are 4 groups of distinct atoms

 Group   1 Type O   : 12s7p3d1f contracted to 6s4p3d1f pattern {621111/4111/111/1}
 Group   2 Type N   : 12s6p3d1f contracted to 6s3p3d1f pattern {621111/411/111/1}
 Group   3 Type C   : 12s6p3d1f contracted to 6s3p3d1f pattern {621111/411/111/1}
 Group   4 Type H   : 5s3p1d contracted to 3s3p1d pattern {311/111/1}

Atom   0O    basis set group =>   1
Atom   1O    basis set group =>   1
Atom   2O    basis set group =>   1
Atom   3O    basis set group =>   1
Atom   4N    basis set group =>   2
Atom   5N    basis set group =>   2
Atom   6N    basis set group =>   2
Atom   7N    basis set group =>   2
Atom   8C    basis set group =>   3
Atom   9C    basis set group =>   3
Atom  10C    basis set group =>   3
Atom  11C    basis set group =>   3
Atom  12C    basis set group =>   3
Atom  13C    basis set group =>   3
Atom  14C    basis set group =>   3
Atom  15C    basis set group =>   3
Atom  16C    basis set group =>   3
Atom  17C    basis set group =>   3
Atom  18H    basis set group =>   4
Atom  19H    basis set group =>   4
Atom  20H    basis set group =>   4
Atom  21H    basis set group =>   4
Atom  22H    basis set group =>   4
Atom  23H    basis set group =>   4
Atom  24H    basis set group =>   4
Atom  25H    basis set group =>   4
Atom  26H    basis set group =>   4
Atom  27H    basis set group =>   4
Atom  28H    basis set group =>   4
Atom  29H    basis set group =>   4
---------------------------------
AUXILIARY/J BASIS SET INFORMATION
---------------------------------
There are 4 groups of distinct atoms

 Group   1 Type O   : 12s5p4d2f1g contracted to 6s4p3d1f1g pattern {711111/2111/211/2/1}
 Group   2 Type N   : 12s5p4d2f1g contracted to 6s4p3d1f1g pattern {711111/2111/211/2/1}
 Group   3 Type C   : 12s5p4d2f1g contracted to 6s4p3d1f1g pattern {711111/2111/211/2/1}
 Group   4 Type H   : 5s2p1d contracted to 3s1p1d pattern {311/2/1}

Atom   0O    basis set group =>   1
Atom   1O    basis set group =>   1
Atom   2O    basis set group =>   1
Atom   3O    basis set group =>   1
Atom   4N    basis set group =>   2
Atom   5N    basis set group =>   2
Atom   6N    basis set group =>   2
Atom   7N    basis set group =>   2
Atom   8C    basis set group =>   3
Atom   9C    basis set group =>   3
Atom  10C    basis set group =>   3
Atom  11C    basis set group =>   3
Atom  12C    basis set group =>   3
Atom  13C    basis set group =>   3
Atom  14C    basis set group =>   3
Atom  15C    basis set group =>   3
Atom  16C    basis set group =>   3
Atom  17C    basis set group =>   3
Atom  18H    basis set group =>   4
Atom  19H    basis set group =>   4
Atom  20H    basis set group =>   4
Atom  21H    basis set group =>   4
Atom  22H    basis set group =>   4
Atom  23H    basis set group =>   4
Atom  24H    basis set group =>   4
Atom  25H    basis set group =>   4
Atom  26H    basis set group =>   4
Atom  27H    basis set group =>   4
Atom  28H    basis set group =>   4
Atom  29H    basis set group =>   4
[1739896049.093208] [ohm:253737:0]        ib_iface.c:1059 UCX  ERROR ibv_create_cq(cqe=256) failed: Connection timed out
[1739896049.093558] [ohm:253740:0]        ib_iface.c:1059 UCX  ERROR ibv_create_cq(cqe=256) failed: Connection timed out
[1739896049.095679] [ohm:253738:0]        ib_iface.c:1059 UCX  ERROR ibv_create_cq(cqe=256) failed: Connection timed out
[1739896049.099825] [ohm:253735:0]        ib_iface.c:1059 UCX  ERROR ibv_create_cq(cqe=256) failed: Connection timed out
[1739896049.101903] [ohm:253739:0]        ib_iface.c:1059 UCX  ERROR ibv_create_cq(cqe=256) failed: Connection timed out
[1739896049.130564] [ohm:253736:0]        ib_iface.c:1059 UCX  ERROR ibv_create_cq(cqe=256) failed: Connection timed out
[1739896049.132898] [ohm:253742:0]        ib_iface.c:1059 UCX  ERROR ibv_create_cq(cqe=256) failed: Connection timed out
[1739896049.143177] [ohm:253832:0]        ib_iface.c:1059 UCX  ERROR ibv_create_cq(cqe=256) failed: Connection timed out
[1739896049.151179] [ohm:253761:0]        ib_iface.c:1059 UCX  ERROR ibv_create_cq(cqe=256) failed: Connection timed out
[1739896049.151273] [ohm:253797:0]        ib_iface.c:1059 UCX  ERROR ibv_create_cq(cqe=256) failed: Connection timed out
[1739896049.153947] [ohm:253746:0]        ib_iface.c:1059 UCX  ERROR ibv_create_cq(cqe=256) failed: Connection timed out
[1739896049.153949] [ohm:253744:0]        ib_iface.c:1059 UCX  ERROR ibv_create_cq(cqe=256) failed: Connection timed out
[1739896049.154159] [ohm:253840:0]        ib_iface.c:1059 UCX  ERROR ibv_create_cq(cqe=256) failed: Connection timed out
[1739896049.165808] [ohm:253747:0]        ib_iface.c:1059 UCX  ERROR ibv_create_cq(cqe=256) failed: Connection timed out
[1739896049.167668] [ohm:253783:0]        ib_iface.c:1059 UCX  ERROR ibv_create_cq(cqe=256) failed: Connection timed out
[1739896049.168242] [ohm:253849:0]        ib_iface.c:1059 UCX  ERROR ibv_create_cq(cqe=256) failed: Connection timed out
[1739896049.182472] [ohm:253863:0]        ib_iface.c:1059 UCX  ERROR ibv_create_cq(cqe=256) failed: Connection timed out
[1739896049.213930] [ohm:253755:0]        ib_iface.c:1059 UCX  ERROR ibv_create_cq(cqe=256) failed: Connection timed out
[1739896049.217597] [ohm:253859:0]        ib_iface.c:1059 UCX  ERROR ibv_create_cq(cqe=256) failed: Connection timed out
[1739896049.223129] [ohm:253793:0]        ib_iface.c:1059 UCX  ERROR ibv_create_cq(cqe=256) failed: Connection timed out
[1739896049.223227] [ohm:253862:0]        ib_iface.c:1059 UCX  ERROR ibv_create_cq(cqe=256) failed: Connection timed out
[1739896049.232848] [ohm:253885:0]        ib_iface.c:1059 UCX  ERROR ibv_create_cq(cqe=256) failed: Connection timed out
[1739896049.236080] [ohm:253748:0]        ib_iface.c:1059 UCX  ERROR ibv_create_cq(cqe=256) failed: Connection timed out
[1739896049.241085] [ohm:253756:0]        ib_iface.c:1059 UCX  ERROR ibv_create_cq(cqe=256) failed: Connection timed out
[1739896049.244592] [ohm:253838:0]        ib_iface.c:1059 UCX  ERROR ibv_create_cq(cqe=256) failed: Connection timed out
[1739896049.247485] [ohm:253762:0]        ib_iface.c:1059 UCX  ERROR ibv_create_cq(cqe=256) failed: Connection timed out
[1739896049.254666] [ohm:253773:0]        ib_iface.c:1059 UCX  ERROR ibv_create_cq(cqe=256) failed: Connection timed out
[1739896049.255574] [ohm:253823:0]        ib_iface.c:1059 UCX  ERROR ibv_create_cq(cqe=256) failed: Connection timed out
[1739896049.281086] [ohm:253802:0]        ib_iface.c:1059 UCX  ERROR ibv_create_cq(cqe=256) failed: Connection timed out
[1739896049.281078] [ohm:253867:0]        ib_iface.c:1059 UCX  ERROR ibv_create_cq(cqe=256) failed: Connection timed out
[1739896049.297982] [ohm:253835:0]        ib_iface.c:1059 UCX  ERROR ibv_create_cq(cqe=256) failed: Connection timed out
[1739896049.321719] [ohm:253809:0]        ib_iface.c:1059 UCX  ERROR ibv_create_cq(cqe=256) failed: Connection timed out
[1739896049.329192] [ohm:253766:0]        ib_iface.c:1059 UCX  ERROR ibv_create_cq(cqe=256) failed: Connection timed out
[1739896049.330614] [ohm:253750:0]        ib_iface.c:1059 UCX  ERROR ibv_create_cq(cqe=256) failed: Connection timed out
[1739896049.336420] [ohm:253751:0]        ib_iface.c:1059 UCX  ERROR ibv_create_cq(cqe=256) failed: Connection timed out
[1739896049.349213] [ohm:253826:0]        ib_iface.c:1059 UCX  ERROR ibv_create_cq(cqe=256) failed: Connection timed out
[1739896049.351200] [ohm:253753:0]        ib_iface.c:1059 UCX  ERROR ibv_create_cq(cqe=256) failed: Connection timed out
[1739896049.352096] [ohm:253745:0]        ib_iface.c:1059 UCX  ERROR ibv_create_cq(cqe=256) failed: Connection timed out
[1739896049.353251] [ohm:253754:0]        ib_iface.c:1059 UCX  ERROR ibv_create_cq(cqe=256) failed: Connection timed out
[1739896049.360542] [ohm:253743:0]        ib_iface.c:1059 UCX  ERROR ibv_create_cq(cqe=256) failed: Connection timed out
[1739896049.360612] [ohm:253768:0]        ib_iface.c:1059 UCX  ERROR ibv_create_cq(cqe=256) failed: Connection timed out
[1739896049.362820] [ohm:253780:0]        ib_iface.c:1059 UCX  ERROR ibv_create_cq(cqe=256) failed: Connection timed out
[1739896049.370827] [ohm:253790:0]        ib_iface.c:1059 UCX  ERROR ibv_create_cq(cqe=256) failed: Connection timed out
[1739896049.373619] [ohm:253784:0]        ib_iface.c:1059 UCX  ERROR ibv_create_cq(cqe=256) failed: Connection timed out
[1739896049.374874] [ohm:253852:0]        ib_iface.c:1059 UCX  ERROR ibv_create_cq(cqe=256) failed: Connection timed out
[1739896049.374982] [ohm:253812:0]        ib_iface.c:1059 UCX  ERROR ibv_create_cq(cqe=256) failed: Connection timed out
[1739896049.375230] [ohm:253871:0]        ib_iface.c:1059 UCX  ERROR ibv_create_cq(cqe=256) failed: Connection timed out
[1739896049.377993] [ohm:253856:0]        ib_iface.c:1059 UCX  ERROR ibv_create_cq(cqe=256) failed: Connection timed out
[1739896049.380769] [ohm:253759:0]        ib_iface.c:1059 UCX  ERROR ibv_create_cq(cqe=256) failed: Connection timed out
[1739896049.382115] [ohm:253776:0]        ib_iface.c:1059 UCX  ERROR ibv_create_cq(cqe=256) failed: Connection timed out
[1739896049.385922] [ohm:253876:0]        ib_iface.c:1059 UCX  ERROR ibv_create_cq(cqe=256) failed: Connection timed out
[1739896049.390345] [ohm:253843:0]        ib_iface.c:1059 UCX  ERROR ibv_create_cq(cqe=256) failed: Connection timed out
[1739896049.391978] [ohm:253830:0]        ib_iface.c:1059 UCX  ERROR ibv_create_cq(cqe=256) failed: Connection timed out
[1739896049.397607] [ohm:253788:0]        ib_iface.c:1059 UCX  ERROR ibv_create_cq(cqe=256) failed: Connection timed out
[1739896049.401009] [ohm:253757:0]        ib_iface.c:1059 UCX  ERROR ibv_create_cq(cqe=256) failed: Connection timed out
[1739896049.402176] [ohm:253881:0]        ib_iface.c:1059 UCX  ERROR ibv_create_cq(cqe=256) failed: Connection timed out
[1739896049.402190] [ohm:253752:0]        ib_iface.c:1059 UCX  ERROR ibv_create_cq(cqe=256) failed: Connection timed out
[1739896049.402445] [ohm:253815:0]        ib_iface.c:1059 UCX  ERROR ibv_create_cq(cqe=256) failed: Connection timed out
[1739896049.402612] [ohm:253741:0]        ib_iface.c:1059 UCX  ERROR ibv_create_cq(cqe=256) failed: Connection timed out
[1739896049.402942] [ohm:253818:0]        ib_iface.c:1059 UCX  ERROR ibv_create_cq(cqe=256) failed: Connection timed out
[1739896049.402880] [ohm:253749:0]        ib_iface.c:1059 UCX  ERROR ibv_create_cq(cqe=256) failed: Connection timed out
[1739896049.403104] [ohm:253847:0]        ib_iface.c:1059 UCX  ERROR ibv_create_cq(cqe=256) failed: Connection timed out
[1739896049.403287] [ohm:253758:0]        ib_iface.c:1059 UCX  ERROR ibv_create_cq(cqe=256) failed: Connection timed out
[1739896049.404611] [ohm:253805:0]        ib_iface.c:1059 UCX  ERROR ibv_create_cq(cqe=256) failed: Connection timed out


           ************************************************************
           *        Program running with 64 parallel MPI-processes    *
           *              working on a common directory               *
           ************************************************************
------------------------------------------------------------------------------
                             ORCA STARTUP CALCULATIONS
                           -- RI-GTO INTEGRALS CHOSEN --
------------------------------------------------------------------------------
------------------------------------------------------------------------------
                   ___                                                        
                  /   \      - P O W E R E D   B Y -                         
                 /     \                                                     
                 |  |  |   _    _      __       _____    __    __             
                 |  |  |  | |  | |    /  \     |  _  \  |  |  /  |          
                  \  \/   | |  | |   /    \    | | | |  |  | /  /          
                 / \  \   | |__| |  /  /\  \   | |_| |  |  |/  /          
                |  |  |   |  __  | /  /__\  \  |    /   |      \           
                |  |  |   | |  | | |   __   |  |    \   |  |\   \          
                \     /   | |  | | |  |  |  |  | |\  \  |  | \   \       
                 \___/    |_|  |_| |__|  |__|  |_| \__\ |__|  \__/        
                                                                              
                      - O R C A' S   B I G   F R I E N D -                    
                                      &                                       
                       - I N T E G R A L  F E E D E R -                       
                                                                              
 v1 FN, 2020, v2 2021, v3 2022-2024                                           
------------------------------------------------------------------------------


----------------------
SHARK INTEGRAL PACKAGE
----------------------

Number of atoms                             ...     30
Number of basis functions                   ...    882
Number of shells                            ...    322
Maximum angular momentum                    ...      3
Integral batch strategy                     ... SHARK/LIBINT Hybrid
RI-J (if used) integral strategy            ... SPLIT-RIJ (Revised 2003 algorithm where possible)
Printlevel                                  ...      1
Contraction scheme used                     ... SEGMENTED contraction
Prescreening option                         ... SCHWARTZ
   Thresh                                   ... 2.500e-11
   Tcut                                     ... 2.500e-12
   Tpresel                                  ... 2.500e-12 
Coulomb Range Separation                    ... NOT USED
Exchange Range Separation                   ... Long Range
   Mu parameter                             ... 3.000e-01
   Scaling (regular/separated)              ... 1.500e-01 8.500e-01
Multipole approximations                    ... NOT USED
Finite Nucleus Model                        ... NOT USED
CABS basis                                  ... NOT available
Auxiliary Coulomb fitting basis             ... AVAILABLE
   # of basis functions in Aux-J            ...   1014
   # of shells in Aux-J                     ...    330
   Maximum angular momentum in Aux-J        ...      4
Auxiliary J/K fitting basis                 ... NOT available
Auxiliary Correlation fitting basis         ... NOT available
Auxiliary 'external' fitting basis          ... NOT available

Checking pre-screening integrals            ... done (  0.0 sec) Dimension = 322
Check shell pair data                       ... done (  0.0 sec)
Shell pair information
Shell pair cut-off parameter TPreSel        ...   2.5e-12
Total number of shell pairs                 ...     52003
Shell pairs after pre-screening             ...     44325
Total number of primitive shell pairs       ...    129718
Primitive shell pairs kept                  ...     81980
          la=0 lb=0:   8591 shell pairs
          la=1 lb=0:  11750 shell pairs
          la=1 lb=1:   4071 shell pairs
          la=2 lb=0:   7972 shell pairs
          la=2 lb=1:   5511 shell pairs
          la=2 lb=2:   1900 shell pairs
          la=3 lb=0:   1981 shell pairs
          la=3 lb=1:   1439 shell pairs
          la=3 lb=2:    974 shell pairs
          la=3 lb=3:    136 shell pairs

Calculating one electron integrals          ... done (  0.2 sec)
Calculating RI/J V-Matrix + Cholesky decomp.... done (  0.1 sec)
Calculating Nuclear repulsion               ... done (  0.0 sec) ENN=   1398.532226175669 Eh

Diagonalization of the overlap matrix:
Smallest eigenvalue                        ... 6.007e-07
Time for diagonalization                   ...    0.126 sec
Threshold for overlap eigenvalues          ... 1.000e-07
Number of eigenvalues below threshold      ... 0

IMPORTANT:
Smallest eigenvalue of S below the DiffSThresh (1.000e-06) while
Thresh>1e-12 and/or TCut>1e-13! In order to avoid SCF convergence issues,
Thresh will be set to at least 1e-12 and TCut to at least 1e-13.
This can be turned off by adding %SCF DiffSThresh -1 END to the input.

Time for construction of square roots      ...    0.142 sec
Total time needed                          ...    0.284 sec

-------------------
DFT GRID GENERATION
-------------------

General Integration Accuracy     IntAcc      ... 4.388
Radial Grid Type                 RadialGrid  ... OptM3 with GC (2021)
Angular Grid (max. ang.)         AngularGrid ... 4 (Lebedev-302)
Angular grid pruning method      GridPruning ... 4 (adaptive)
Weight generation scheme         WeightScheme... mBecke (2022)
Basis function cutoff            BFCut       ... 1.0000e-11
Integration weight cutoff        WCut        ... 1.0000e-14
Partially contracted basis set               ... off
Rotationally invariant grid construction     ... off
Angular grids for H and He will be reduced by one unit
Diffuse basis detected: some atoms will have their outermost
                        angular grid increased by 1.

Total number of grid points                  ...   152686
Total number of batches                      ...     2399
Average number of points per batch           ...       63
Average number of grid points per atom       ...     5090

--------------------
COSX GRID GENERATION
--------------------

GRIDX 1
-------
General Integration Accuracy     IntAcc      ... 3.816
Radial Grid Type                 RadialGrid  ... OptM3 with GC (2021)
Angular Grid (max. ang.)         AngularGrid ... 1 (Lebedev-50)
Angular grid pruning method      GridPruning ... 4 (adaptive)
Weight generation scheme         WeightScheme... mBecke (2022)
Basis function cutoff            BFCut       ... 1.0000e-11
Integration weight cutoff        WCut        ... 1.0000e-14
Partially contracted basis set               ... on
Rotationally invariant grid construction     ... off
Angular grids for H and He will be reduced by one unit
Diffuse basis detected: some atoms will have their outermost
                        angular grid increased by 1.

Total number of grid points                  ...    19133
Total number of batches                      ...      166
Average number of points per batch           ...      115
Average number of grid points per atom       ...      638
UseSFitting                                  ... on

GRIDX 2
-------
General Integration Accuracy     IntAcc      ... 4.020
Radial Grid Type                 RadialGrid  ... OptM3 with GC (2021)
Angular Grid (max. ang.)         AngularGrid ... 2 (Lebedev-110)
Angular grid pruning method      GridPruning ... 4 (adaptive)
Weight generation scheme         WeightScheme... mBecke (2022)
Basis function cutoff            BFCut       ... 1.0000e-11
Integration weight cutoff        WCut        ... 1.0000e-14
Partially contracted basis set               ... on
Rotationally invariant grid construction     ... off
Angular grids for H and He will be reduced by one unit
Diffuse basis detected: some atoms will have their outermost
                        angular grid increased by 1.

Total number of grid points                  ...    46222
Total number of batches                      ...      377
Average number of points per batch           ...      122
Average number of grid points per atom       ...     1541
UseSFitting                                  ... on

GRIDX 3
-------
General Integration Accuracy     IntAcc      ... 4.338
Radial Grid Type                 RadialGrid  ... OptM3 with GC (2021)
Angular Grid (max. ang.)         AngularGrid ... 3 (Lebedev-194)
Angular grid pruning method      GridPruning ... 4 (adaptive)
Weight generation scheme         WeightScheme... mBecke (2022)
Basis function cutoff            BFCut       ... 1.0000e-11
Integration weight cutoff        WCut        ... 1.0000e-14
Partially contracted basis set               ... on
Rotationally invariant grid construction     ... off
Angular grids for H and He will be reduced by one unit
Diffuse basis detected: some atoms will have their outermost
                        angular grid increased by 1.

Total number of grid points                  ...   101763
Total number of batches                      ...      811
Average number of points per batch           ...      125
Average number of grid points per atom       ...     3392
UseSFitting                                  ... on
Initializing property integral containers    ... done (  0.0 sec)

SHARK setup successfully completed in   4.3 seconds

Maximum memory used throughout the entire STARTUP-calculation: 79.1 MB
[1739896055.522329] [ohm:254102:0]        ib_iface.c:1059 UCX  ERROR ibv_create_cq(cqe=256) failed: Connection timed out
[1739896055.540611] [ohm:254099:0]        ib_iface.c:1059 UCX  ERROR ibv_create_cq(cqe=256) failed: Connection timed out
[1739896055.586857] [ohm:254100:0]        ib_iface.c:1059 UCX  ERROR ibv_create_cq(cqe=256) failed: Connection timed out
[1739896055.605488] [ohm:254106:0]        ib_iface.c:1059 UCX  ERROR ibv_create_cq(cqe=256) failed: Connection timed out
[1739896055.605747] [ohm:254103:0]        ib_iface.c:1059 UCX  ERROR ibv_create_cq(cqe=256) failed: Connection timed out
[1739896055.607006] [ohm:254104:0]        ib_iface.c:1059 UCX  ERROR ibv_create_cq(cqe=256) failed: Connection timed out
[1739896055.612794] [ohm:254166:0]        ib_iface.c:1059 UCX  ERROR ibv_create_cq(cqe=256) failed: Connection timed out
[1739896055.622167] [ohm:254168:0]        ib_iface.c:1059 UCX  ERROR ibv_create_cq(cqe=256) failed: Connection timed out
[1739896055.626405] [ohm:254101:0]        ib_iface.c:1059 UCX  ERROR ibv_create_cq(cqe=256) failed: Connection timed out
[1739896055.628243] [ohm:254112:0]        ib_iface.c:1059 UCX  ERROR ibv_create_cq(cqe=256) failed: Connection timed out
[1739896055.639651] [ohm:254237:0]        ib_iface.c:1059 UCX  ERROR ibv_create_cq(cqe=256) failed: Connection timed out
[1739896055.645941] [ohm:254108:0]        ib_iface.c:1059 UCX  ERROR ibv_create_cq(cqe=256) failed: Connection timed out
[1739896055.646643] [ohm:254105:0]        ib_iface.c:1059 UCX  ERROR ibv_create_cq(cqe=256) failed: Connection timed out
[1739896055.648842] [ohm:254115:0]        ib_iface.c:1059 UCX  ERROR ibv_create_cq(cqe=256) failed: Connection timed out
[1739896055.652396] [ohm:254169:0]        ib_iface.c:1059 UCX  ERROR ibv_create_cq(cqe=256) failed: Connection timed out
[1739896055.659308] [ohm:254114:0]        ib_iface.c:1059 UCX  ERROR ibv_create_cq(cqe=256) failed: Connection timed out
[1739896055.671075] [ohm:254188:0]        ib_iface.c:1059 UCX  ERROR ibv_create_cq(cqe=256) failed: Connection timed out
[1739896055.679200] [ohm:254113:0]        ib_iface.c:1059 UCX  ERROR ibv_create_cq(cqe=256) failed: Connection timed out
[1739896055.681260] [ohm:254144:0]        ib_iface.c:1059 UCX  ERROR ibv_create_cq(cqe=256) failed: Connection timed out
[1739896055.682834] [ohm:254171:0]        ib_iface.c:1059 UCX  ERROR ibv_create_cq(cqe=256) failed: Connection timed out
[1739896055.684899] [ohm:254110:0]        ib_iface.c:1059 UCX  ERROR ibv_create_cq(cqe=256) failed: Connection timed out
[1739896055.705670] [ohm:254132:0]        ib_iface.c:1059 UCX  ERROR ibv_create_cq(cqe=256) failed: Connection timed out
[1739896055.733299] [ohm:254150:0]        ib_iface.c:1059 UCX  ERROR ibv_create_cq(cqe=256) failed: Connection timed out
[1739896055.734265] [ohm:254141:0]        ib_iface.c:1059 UCX  ERROR ibv_create_cq(cqe=256) failed: Connection timed out
[1739896055.739372] [ohm:254126:0]        ib_iface.c:1059 UCX  ERROR ibv_create_cq(cqe=256) failed: Connection timed out
[1739896055.745363] [ohm:254250:0]        ib_iface.c:1059 UCX  ERROR ibv_create_cq(cqe=256) failed: Connection timed out
[1739896055.761147] [ohm:254158:0]        ib_iface.c:1059 UCX  ERROR ibv_create_cq(cqe=256) failed: Connection timed out
[1739896055.767109] [ohm:254245:0]        ib_iface.c:1059 UCX  ERROR ibv_create_cq(cqe=256) failed: Connection timed out
[1739896055.776026] [ohm:254231:0]        ib_iface.c:1059 UCX  ERROR ibv_create_cq(cqe=256) failed: Connection timed out
[1739896055.795462] [ohm:254130:0]        ib_iface.c:1059 UCX  ERROR ibv_create_cq(cqe=256) failed: Connection timed out
[1739896055.797892] [ohm:254212:0]        ib_iface.c:1059 UCX  ERROR ibv_create_cq(cqe=256) failed: Connection timed out
[1739896055.807986] [ohm:254148:0]        ib_iface.c:1059 UCX  ERROR ibv_create_cq(cqe=256) failed: Connection timed out
[1739896055.809933] [ohm:254154:0]        ib_iface.c:1059 UCX  ERROR ibv_create_cq(cqe=256) failed: Connection timed out
[1739896055.810374] [ohm:254173:0]        ib_iface.c:1059 UCX  ERROR ibv_create_cq(cqe=256) failed: Connection timed out
[1739896055.811953] [ohm:254163:0]        ib_iface.c:1059 UCX  ERROR ibv_create_cq(cqe=256) failed: Connection timed out
[1739896055.822177] [ohm:254165:0]        ib_iface.c:1059 UCX  ERROR ibv_create_cq(cqe=256) failed: Connection timed out
[1739896055.822356] [ohm:254206:0]        ib_iface.c:1059 UCX  ERROR ibv_create_cq(cqe=256) failed: Connection timed out
[1739896055.828250] [ohm:254129:0]        ib_iface.c:1059 UCX  ERROR ibv_create_cq(cqe=256) failed: Connection timed out
[1739896055.828965] [ohm:254207:0]        ib_iface.c:1059 UCX  ERROR ibv_create_cq(cqe=256) failed: Connection timed out
[1739896055.834090] [ohm:254111:0]        ib_iface.c:1059 UCX  ERROR ibv_create_cq(cqe=256) failed: Connection timed out
[1739896055.835742] [ohm:254213:0]        ib_iface.c:1059 UCX  ERROR ibv_create_cq(cqe=256) failed: Connection timed out
[1739896055.843427] [ohm:254139:0]        ib_iface.c:1059 UCX  ERROR ibv_create_cq(cqe=256) failed: Connection timed out
[1739896055.843432] [ohm:254182:0]        ib_iface.c:1059 UCX  ERROR ibv_create_cq(cqe=256) failed: Connection timed out
[1739896055.847341] [ohm:254218:0]        ib_iface.c:1059 UCX  ERROR ibv_create_cq(cqe=256) failed: Connection timed out
[1739896055.851606] [ohm:254222:0]        ib_iface.c:1059 UCX  ERROR ibv_create_cq(cqe=256) failed: Connection timed out
[1739896055.853384] [ohm:254170:0]        ib_iface.c:1059 UCX  ERROR ibv_create_cq(cqe=256) failed: Connection timed out
[1739896055.854726] [ohm:254162:0]        ib_iface.c:1059 UCX  ERROR ibv_create_cq(cqe=256) failed: Connection timed out
[1739896055.854740] [ohm:254197:0]        ib_iface.c:1059 UCX  ERROR ibv_create_cq(cqe=256) failed: Connection timed out
[1739896055.857138] [ohm:254159:0]        ib_iface.c:1059 UCX  ERROR ibv_create_cq(cqe=256) failed: Connection timed out
[1739896055.857394] [ohm:254136:0]        ib_iface.c:1059 UCX  ERROR ibv_create_cq(cqe=256) failed: Connection timed out
[1739896055.857641] [ohm:254230:0]        ib_iface.c:1059 UCX  ERROR ibv_create_cq(cqe=256) failed: Connection timed out
[1739896055.861358] [ohm:254200:0]        ib_iface.c:1059 UCX  ERROR ibv_create_cq(cqe=256) failed: Connection timed out
[1739896055.867330] [ohm:254240:0]        ib_iface.c:1059 UCX  ERROR ibv_create_cq(cqe=256) failed: Connection timed out
[1739896055.868559] [ohm:254174:0]        ib_iface.c:1059 UCX  ERROR ibv_create_cq(cqe=256) failed: Connection timed out
[1739896055.869553] [ohm:254225:0]        ib_iface.c:1059 UCX  ERROR ibv_create_cq(cqe=256) failed: Connection timed out
[1739896055.870297] [ohm:254107:0]        ib_iface.c:1059 UCX  ERROR ibv_create_cq(cqe=256) failed: Connection timed out
[1739896055.871075] [ohm:254178:0]        ib_iface.c:1059 UCX  ERROR ibv_create_cq(cqe=256) failed: Connection timed out
[1739896055.871236] [ohm:254216:0]        ib_iface.c:1059 UCX  ERROR ibv_create_cq(cqe=256) failed: Connection timed out
[1739896055.875859] [ohm:254172:0]        ib_iface.c:1059 UCX  ERROR ibv_create_cq(cqe=256) failed: Connection timed out
[1739896055.879261] [ohm:254194:0]        ib_iface.c:1059 UCX  ERROR ibv_create_cq(cqe=256) failed: Connection timed out
[1739896055.879574] [ohm:254177:0]        ib_iface.c:1059 UCX  ERROR ibv_create_cq(cqe=256) failed: Connection timed out
[1739896055.880838] [ohm:254167:0]        ib_iface.c:1059 UCX  ERROR ibv_create_cq(cqe=256) failed: Connection timed out
[1739896055.881954] [ohm:254109:0]        ib_iface.c:1059 UCX  ERROR ibv_create_cq(cqe=256) failed: Connection timed out
[1739896055.882247] [ohm:254190:0]        ib_iface.c:1059 UCX  ERROR ibv_create_cq(cqe=256) failed: Connection timed out


           ************************************************************
           *        Program running with 64 parallel MPI-processes    *
           *              working on a common directory               *
           ************************************************************
-------------------------------------------------------------------------------
                                 ORCA GUESS
                   Start orbitals & Density for SCF / CASSCF
-------------------------------------------------------------------------------

------------
SCF SETTINGS
------------
Hamiltonian:
 Density Functional     Method          .... DFT(GTOs)
  Functional kind                       .... Exchange-Correlation
  Functional name                       .... wB97M-V exchange-correlation functional
  Functional family                     .... Hybrid MGGA
  Functional refs                              
    [ 0] N. Mardirossian and M. Head-Gordon.,  J. Chem. Phys. 144, 214110 (2016), doi: 10.1063/1.4952647
  Fraction of HF Exchange (short range) .... 0.1500
  Fraction of HF Exchange (long range)  .... 1.0000
  Range separation parameter mu         .... 0.3000
  Functional external parameters        .... 17
    Parameter  0 _cx00      =  8.500000e-01 : u^00 coefficient for exchange
    Parameter  1 _cx01      =  1.007000e+00 : u^01 coefficient for exchange
    Parameter  2 _cx10      =  2.590000e-01 : u^10 coefficient for exchange
    Parameter  3 _css00     =  4.430000e-01 : u^00 coefficient for same-spin correlation
    Parameter  4 _css04     = -1.437000e+00 : u^04 coefficient for same-spin correlation
    Parameter  5 _css10     = -4.535000e+00 : u^10 coefficient for same-spin correlation
    Parameter  6 _css20     = -3.390000e+00 : u^20 coefficient for same-spin correlation
    Parameter  7 _css43     =  4.278000e+00 : u^43 coefficient for same-spin correlation
    Parameter  8 _cos00     =  1.000000e+00 : u^00 coefficient for opposite-spin correlation
    Parameter  9 _cos10     =  1.358000e+00 : u^10 coefficient for opposite-spin correlation
    Parameter 10 _cos20     =  2.924000e+00 : u^20 coefficient for opposite-spin correlation
    Parameter 11 _cos21     = -8.812000e+00 : u^21 coefficient for opposite-spin correlation
    Parameter 12 _cos60     = -1.390000e+00 : u^60 coefficient for opposite-spin correlation
    Parameter 13 _cos61     =  9.142000e+00 : u^61 coefficient for opposite-spin correlation
    Parameter 14 _alpha     =  1.000000e+00 : fraction of HF exchange
    Parameter 15 _beta      = -8.500000e-01 : fraction of short-range exchange
    Parameter 16 _omega     =  3.000000e-01 : range-separation constant
 Long-range corrected/Screened/Range-Separated Hybrid DFT is turned on
   Amount of maximum screened exact exchange              ....  0.850000
   Range separation parameter mu (erf(mu*r12)/r12)        ....  0.300000
 RI-approximation to the Coulomb term is turned on
   Number of AuxJ basis functions       .... 1014
   RIJ-COSX (HFX calculated with COS-X)).... on


General Settings:
 Integral files         IntName         .... orca
 Hartree-Fock type      HFTyp           .... UHF
 Total Charge           Charge          ....    0
 Multiplicity           Mult            ....    3
 Number of Electrons    NEL             ....  132
 Basis Dimension        Dim             ....  882
 Nuclear Repulsion      ENuc            ....   1398.5322261757 Eh

Convergence Acceleration:
 AO-DIIS                CNVDIIS         .... on
   Start iteration      DIISMaxIt       ....    12
   Startup error        DIISStart       ....  0.200000
   # of expansion vecs  DIISMaxEq       ....     5
   Bias factor          DIISBfac        ....   1.050
   Max. coefficient     DIISMaxC        ....  10.000
 MO-DIIS                CNVKDIIS        .... off
 Trust-Rad. Augm. Hess. CNVTRAH         .... auto
   Auto Start mean grad. ratio tolernc. ....  1.125000
   Auto Start start iteration           ....    50
   Auto Start num. interpolation iter.  ....    10
   Max. Number of Micro iterations      ....    24
   Max. Number of Macro iterations      .... Maxiter - #DIIS iter
   Number of Davidson start vectors     ....     2
   Converg. threshold    (grad. norm)   ....   1.000e-05
   Grad. Scal. Fac. for Micro threshold ....   0.100
   Minimum threshold for Micro iter.    ....   1.000e-02
   NR start threshold (gradient norm)   ....   1.000e-04
   Initial trust radius                 ....   0.400
   Minimum AH scaling param. (alpha)    ....   1.000
   Maximum AH scaling param. (alpha)    .... 1000.000
   Quad. conv. algorithm                .... NR
   White noise on init. David. guess    .... on
   Maximum white noise                  ....   0.010
   Pseudo random numbers                .... off
   Inactive MOs                         .... canonical
   Orbital update algorithm             .... Taylor
   Preconditioner                       .... Diag
   Full preconditioner red. dimension   ....   250
 SOSCF                  CNVSOSCF        .... on
   Start iteration      SOSCFMaxIt      ....   150
   Startup grad/error   SOSCFStart      ....  0.003300
   Hessian update       SOSCFHessUp     .... L-BFGS
 Level Shifting         CNVShift        .... on
   Level shift para.    LevelShift      ....    0.2500
   Turn off err/grad.   ShiftErr        ....    0.0010
 Zerner damping         CNVZerner       .... off
 Static damping         CNVDamp         .... on
   Fraction old density DampFac         ....    0.7000
   Max. Damping (<1)    DampMax         ....    0.9800
   Min. Damping (>=0)   DampMin         ....    0.0000
   Turn off err/grad.   DampErr         ....    0.1000

SCF Procedure:
 Maximum # iterations   MaxIter         ....   125
 SCF integral mode      SCFMode         .... Direct
   Integral package                     .... SHARK and LIBINT hybrid scheme
 Reset frequency        DirectResetFreq ....    20
 Integral Threshold     Thresh          ....  1.000e-12 Eh
 Primitive CutOff       TCut            ....  1.000e-13 Eh

Convergence Tolerance:
 Convergence Check Mode ConvCheckMode   .... Total+1el-Energy
 Convergence forced     ConvForced      .... 1
 Energy Change          TolE            ....  1.000e-08 Eh
 1-El. energy change                    ....  1.000e-05 Eh
 Orbital Gradient       TolG            ....  1.000e-05
 Orbital Rotation angle TolX            ....  1.000e-05
 DIIS Error             TolErr          ....  5.000e-07

------------------------------
INITIAL GUESS: MODEL POTENTIAL
------------------------------
Loading Hartree-Fock densities                     ... done
Calculating cut-offs                               ... done
Initializing the effective Hamiltonian             ... done
Setting up the integral package (SHARK)            ... done
Starting the Coulomb interaction                   ... done (   0.1 sec)
Making the grid                                    ... done (   0.3 sec)
Mapping shells                                     ... done
Starting the XC term evaluation                    ... done (   0.1 sec)
  promolecular density results
     # of electrons  =    131.998632887
     EX              =   -113.488270760
     EC              =     -4.455226538
     EX+EC           =   -117.943497297
Transforming the Hamiltonian                       ... done (   0.1 sec)
Diagonalizing the Hamiltonian                      ... done (   0.1 sec)
Back transforming the eigenvectors                 ... done (   0.1 sec)
Now organizing SCF variables                       ... done
                      ------------------
                      INITIAL GUESS DONE (   1.1 sec)
                      ------------------
             **** ENERGY FILE WAS UPDATED (orca.en.tmp) ****
Finished Guess after   3.6 sec
Maximum memory used throughout the entire GUESS-calculation: 71.4 MB
[1739896059.874876] [ohm:254452:0]        ib_iface.c:1059 UCX  ERROR ibv_create_cq(cqe=256) failed: Connection timed out
[1739896059.890374] [ohm:254457:0]        ib_iface.c:1059 UCX  ERROR ibv_create_cq(cqe=256) failed: Connection timed out
[1739896059.891485] [ohm:254468:0]        ib_iface.c:1059 UCX  ERROR ibv_create_cq(cqe=256) failed: Connection timed out
[1739896059.936239] [ohm:254453:0]        ib_iface.c:1059 UCX  ERROR ibv_create_cq(cqe=256) failed: Connection timed out
[1739896059.936419] [ohm:254473:0]        ib_iface.c:1059 UCX  ERROR ibv_create_cq(cqe=256) failed: Connection timed out
[1739896059.948872] [ohm:254454:0]        ib_iface.c:1059 UCX  ERROR ibv_create_cq(cqe=256) failed: Connection timed out
[1739896059.951168] [ohm:254460:0]        ib_iface.c:1059 UCX  ERROR ibv_create_cq(cqe=256) failed: Connection timed out
[1739896059.953843] [ohm:254455:0]        ib_iface.c:1059 UCX  ERROR ibv_create_cq(cqe=256) failed: Connection timed out
[1739896060.011190] [ohm:254458:0]        ib_iface.c:1059 UCX  ERROR ibv_create_cq(cqe=256) failed: Connection timed out
[1739896060.018595] [ohm:254465:0]        ib_iface.c:1059 UCX  ERROR ibv_create_cq(cqe=256) failed: Connection timed out
[1739896060.027836] [ohm:254476:0]        ib_iface.c:1059 UCX  ERROR ibv_create_cq(cqe=256) failed: Connection timed out
[1739896060.029376] [ohm:254459:0]        ib_iface.c:1059 UCX  ERROR ibv_create_cq(cqe=256) failed: Connection timed out
[1739896060.033202] [ohm:254462:0]        ib_iface.c:1059 UCX  ERROR ibv_create_cq(cqe=256) failed: Connection timed out
[1739896060.044582] [ohm:254469:0]        ib_iface.c:1059 UCX  ERROR ibv_create_cq(cqe=256) failed: Connection timed out
[1739896060.047125] [ohm:254481:0]        ib_iface.c:1059 UCX  ERROR ibv_create_cq(cqe=256) failed: Connection timed out
[1739896060.052577] [ohm:254456:0]        ib_iface.c:1059 UCX  ERROR ibv_create_cq(cqe=256) failed: Connection timed out
[1739896060.057898] [ohm:254463:0]        ib_iface.c:1059 UCX  ERROR ibv_create_cq(cqe=256) failed: Connection timed out
[1739896060.058900] [ohm:254477:0]        ib_iface.c:1059 UCX  ERROR ibv_create_cq(cqe=256) failed: Connection timed out
[1739896060.094026] [ohm:254472:0]        ib_iface.c:1059 UCX  ERROR ibv_create_cq(cqe=256) failed: Connection timed out
[1739896060.110265] [ohm:254474:0]        ib_iface.c:1059 UCX  ERROR ibv_create_cq(cqe=256) failed: Connection timed out
[1739896060.120253] [ohm:254466:0]        ib_iface.c:1059 UCX  ERROR ibv_create_cq(cqe=256) failed: Connection timed out
[1739896060.124625] [ohm:254464:0]        ib_iface.c:1059 UCX  ERROR ibv_create_cq(cqe=256) failed: Connection timed out
[1739896060.127790] [ohm:254471:0]        ib_iface.c:1059 UCX  ERROR ibv_create_cq(cqe=256) failed: Connection timed out
[1739896060.136785] [ohm:254495:0]        ib_iface.c:1059 UCX  ERROR ibv_create_cq(cqe=256) failed: Connection timed out
[1739896060.137864] [ohm:254571:0]        ib_iface.c:1059 UCX  ERROR ibv_create_cq(cqe=256) failed: Connection timed out
[1739896060.141136] [ohm:254511:0]        ib_iface.c:1059 UCX  ERROR ibv_create_cq(cqe=256) failed: Connection timed out
[1739896060.151186] [ohm:254529:0]        ib_iface.c:1059 UCX  ERROR ibv_create_cq(cqe=256) failed: Connection timed out
[1739896060.151925] [ohm:254475:0]        ib_iface.c:1059 UCX  ERROR ibv_create_cq(cqe=256) failed: Connection timed out
[1739896060.162149] [ohm:254603:0]        ib_iface.c:1059 UCX  ERROR ibv_create_cq(cqe=256) failed: Connection timed out
[1739896060.167731] [ohm:254467:0]        ib_iface.c:1059 UCX  ERROR ibv_create_cq(cqe=256) failed: Connection timed out
[1739896060.184782] [ohm:254484:0]        ib_iface.c:1059 UCX  ERROR ibv_create_cq(cqe=256) failed: Connection timed out
[1739896060.187328] [ohm:254515:0]        ib_iface.c:1059 UCX  ERROR ibv_create_cq(cqe=256) failed: Connection timed out
[1739896060.188489] [ohm:254470:0]        ib_iface.c:1059 UCX  ERROR ibv_create_cq(cqe=256) failed: Connection timed out
[1739896060.189374] [ohm:254461:0]        ib_iface.c:1059 UCX  ERROR ibv_create_cq(cqe=256) failed: Connection timed out
[1739896060.192326] [ohm:254553:0]        ib_iface.c:1059 UCX  ERROR ibv_create_cq(cqe=256) failed: Connection timed out
[1739896060.196735] [ohm:254535:0]        ib_iface.c:1059 UCX  ERROR ibv_create_cq(cqe=256) failed: Connection timed out
[1739896060.199795] [ohm:254541:0]        ib_iface.c:1059 UCX  ERROR ibv_create_cq(cqe=256) failed: Connection timed out
[1739896060.218384] [ohm:254520:0]        ib_iface.c:1059 UCX  ERROR ibv_create_cq(cqe=256) failed: Connection timed out
[1739896060.221505] [ohm:254551:0]        ib_iface.c:1059 UCX  ERROR ibv_create_cq(cqe=256) failed: Connection timed out
[1739896060.227462] [ohm:254491:0]        ib_iface.c:1059 UCX  ERROR ibv_create_cq(cqe=256) failed: Connection timed out
[1739896060.229779] [ohm:254508:0]        ib_iface.c:1059 UCX  ERROR ibv_create_cq(cqe=256) failed: Connection timed out
[1739896060.230869] [ohm:254581:0]        ib_iface.c:1059 UCX  ERROR ibv_create_cq(cqe=256) failed: Connection timed out
[1739896060.236753] [ohm:254573:0]        ib_iface.c:1059 UCX  ERROR ibv_create_cq(cqe=256) failed: Connection timed out
[1739896060.241370] [ohm:254588:0]        ib_iface.c:1059 UCX  ERROR ibv_create_cq(cqe=256) failed: Connection timed out
[1739896060.241477] [ohm:254478:0]        ib_iface.c:1059 UCX  ERROR ibv_create_cq(cqe=256) failed: Connection timed out
[1739896060.250856] [ohm:254525:0]        ib_iface.c:1059 UCX  ERROR ibv_create_cq(cqe=256) failed: Connection timed out
[1739896060.256614] [ohm:254578:0]        ib_iface.c:1059 UCX  ERROR ibv_create_cq(cqe=256) failed: Connection timed out
[1739896060.259936] [ohm:254505:0]        ib_iface.c:1059 UCX  ERROR ibv_create_cq(cqe=256) failed: Connection timed out
[1739896060.261601] [ohm:254479:0]        ib_iface.c:1059 UCX  ERROR ibv_create_cq(cqe=256) failed: Connection timed out
[1739896060.261735] [ohm:254487:0]        ib_iface.c:1059 UCX  ERROR ibv_create_cq(cqe=256) failed: Connection timed out
[1739896060.264122] [ohm:254498:0]        ib_iface.c:1059 UCX  ERROR ibv_create_cq(cqe=256) failed: Connection timed out
[1739896060.269391] [ohm:254538:0]        ib_iface.c:1059 UCX  ERROR ibv_create_cq(cqe=256) failed: Connection timed out
[1739896060.270017] [ohm:254567:0]        ib_iface.c:1059 UCX  ERROR ibv_create_cq(cqe=256) failed: Connection timed out
[1739896060.271603] [ohm:254546:0]        ib_iface.c:1059 UCX  ERROR ibv_create_cq(cqe=256) failed: Connection timed out
[1739896060.272472] [ohm:254577:0]        ib_iface.c:1059 UCX  ERROR ibv_create_cq(cqe=256) failed: Connection timed out
[1739896060.275031] [ohm:254586:0]        ib_iface.c:1059 UCX  ERROR ibv_create_cq(cqe=256) failed: Connection timed out
[1739896060.275003] [ohm:254583:0]        ib_iface.c:1059 UCX  ERROR ibv_create_cq(cqe=256) failed: Connection timed out
[1739896060.276034] [ohm:254563:0]        ib_iface.c:1059 UCX  ERROR ibv_create_cq(cqe=256) failed: Connection timed out
[1739896060.276046] [ohm:254596:0]        ib_iface.c:1059 UCX  ERROR ibv_create_cq(cqe=256) failed: Connection timed out
[1739896060.276421] [ohm:254501:0]        ib_iface.c:1059 UCX  ERROR ibv_create_cq(cqe=256) failed: Connection timed out
[1739896060.276620] [ohm:254504:0]        ib_iface.c:1059 UCX  ERROR ibv_create_cq(cqe=256) failed: Connection timed out
[1739896060.279308] [ohm:254556:0]        ib_iface.c:1059 UCX  ERROR ibv_create_cq(cqe=256) failed: Connection timed out
[1739896060.280154] [ohm:254531:0]        ib_iface.c:1059 UCX  ERROR ibv_create_cq(cqe=256) failed: Connection timed out
[1739896060.280293] [ohm:254560:0]        ib_iface.c:1059 UCX  ERROR ibv_create_cq(cqe=256) failed: Connection timed out


           ************************************************************
           *        Program running with 64 parallel MPI-processes    *
           *              working on a common directory               *
           ************************************************************

-------------------------------------------------------------------------------------------
                                      ORCA LEAN-SCF
                              memory conserving SCF solver
-------------------------------------------------------------------------------------------

----------------------------------------D-I-I-S--------------------------------------------
Iteration    Energy (Eh)           Delta-E    RMSDP     MaxDP     DIISErr   Damp  Time(sec)
-------------------------------------------------------------------------------------------
               ***  Starting incremental Fock matrix formation  ***
    1    -907.9682425826717918     0.00e+00  1.30e-03  2.67e-01  1.53e-01  0.700   7.5
Warning: op=0 Small HOMO/LUMO gap (   0.054) - skipping pre-diagonalization
         Will do a full diagonalization
    2    -908.2715760969617804    -3.03e-01  1.24e-03  1.64e-01  7.44e-02  0.700   6.6
                               ***Turning on AO-DIIS***
    3    -908.4065241037010310    -1.35e-01  9.03e-04  9.55e-02  2.86e-02  0.700   5.6
    4    -908.4875688460874699    -8.10e-02  2.18e-03  2.33e-01  1.80e-02  0.000   5.6
    5    -908.6724265537491192    -1.85e-01  3.05e-04  4.44e-02  3.56e-03  0.000   5.7
                              *** Initializing SOSCF ***
---------------------------------------S-O-S-C-F--------------------------------------
Iteration    Energy (Eh)           Delta-E    RMSDP     MaxDP     MaxGrad    Time(sec)
--------------------------------------------------------------------------------------
    6    -908.6744896574277846    -2.06e-03  2.15e-04  2.52e-02  2.46e-03     6.4
               *** Restarting incremental Fock matrix formation ***
    7    -908.6760901344373451    -1.60e-03  6.43e-04  1.06e-01  1.34e-02     7.1
               *** Scaled step length from 1.022112 to 0.200000 ***
Curvature condition for BFGS not met. Restarting diagonal Hessian.
    8    -908.6800337663148639    -3.94e-03  5.19e-03  1.04e+00  1.45e-02     7.3
               *** Scaled step length from 0.225535 to 0.200000 ***
    9    -908.6704800766065091     9.55e-03  3.97e-03  7.92e-01  2.77e-02     6.8
   10    -908.6723236819821068    -1.84e-03  1.76e-03  2.59e-01  2.76e-02     6.8
               *** Scaled step length from 0.370073 to 0.200000 ***
   11    -908.6809490522759916    -8.63e-03  2.06e-03  2.48e-01  1.55e-02     6.7
               *** Scaled step length from 27.252742 to 0.200000 ***
Curvature condition for BFGS not met. Restarting diagonal Hessian.
   12    -908.6914308549803536    -1.05e-02  4.83e-03  9.76e-01  2.78e-02     7.4
               *** Scaled step length from 0.259055 to 0.200000 ***
   13    -908.6877526294033487     3.68e-03  3.92e-03  8.41e-01  4.20e-02     6.8
               *** Scaled step length from 0.464807 to 0.200000 ***
   14    -908.7023903498020445    -1.46e-02  2.22e-03  2.60e-01  2.82e-02     6.8
               *** Scaled step length from 0.602623 to 0.200000 ***
   15    -908.7154012954001701    -1.30e-02  9.02e-04  8.38e-02  2.41e-02     6.9
   16    -908.7233169902119698    -7.92e-03  1.35e-03  2.06e-01  1.26e-02     6.7
   17    -908.7252471594279086    -1.93e-03  5.18e-04  5.92e-02  7.13e-03     6.7
   18    -908.7258591036770667    -6.12e-04  2.48e-04  2.43e-02  3.31e-03     6.6
   19    -908.7260698394943574    -2.11e-04  6.27e-05  5.78e-03  1.02e-03     6.5
   20    -908.7261028811367396    -3.30e-05  6.67e-05  7.48e-03  3.06e-04     6.3
   21    -908.7261101049457466    -7.22e-06  1.47e-05  1.88e-03  2.32e-04     6.3
   22    -908.7261130230908748    -2.92e-06  1.10e-05  1.07e-03  1.50e-04     6.1
   23    -908.7261141522990329    -1.13e-06  3.83e-06  4.75e-04  1.29e-04     6.0
   24    -908.7261146389182613    -4.87e-07  4.04e-06  5.16e-04  5.68e-05     5.8
   25    -908.7261147727840580    -1.34e-07  1.97e-06  2.25e-04  1.88e-05     5.7
   26    -908.7261148281340866    -5.54e-08  9.04e-07  1.99e-04  1.23e-05     5.6
               *** Restarting incremental Fock matrix formation ***
   27    -908.7261148314655657    -3.33e-09  1.66e-06  3.16e-04  6.67e-06     7.1
                 **** Energy Check signals convergence ****

               *****************************************************
               *                     SUCCESS                       *
               *           SCF CONVERGED AFTER  27 CYCLES          *
               *****************************************************

Recomputing exchange energy using gridx3       ... done (    8.159 sec)
Old exchange energy                            :    -35.001058740 Eh
New exchange energy                            :    -35.001065411 Eh
Exchange energy change after final integration :     -0.000006671 Eh
Total energy after final integration           :   -908.726121503 Eh
             **** ENERGY FILE WAS UPDATED (orca.en.tmp) ****

----------------
TOTAL SCF ENERGY
----------------

Total Energy       :       -908.72612150275791 Eh          -24727.69490 eV

Components:
Nuclear Repulsion  :       1398.53222617566871 Eh           38055.99660 eV
Electronic Energy  :      -2307.25834100713382 Eh          -62783.69132 eV
One Electron Energy:      -4014.69757208119790 Eh         -109245.47487 eV
Two Electron Energy:       1707.43923107406385 Eh           46461.78355 eV

Virial components:
Potential Energy   :      -1814.23697035478381 Eh          -49367.89778 eV
Kinetic Energy     :        905.51084885202602 Eh           24640.20288 eV
Virial Ratio       :          2.00355078313508

DFT components:
N(Alpha)           :       67.000121988815 electrons
N(Beta)            :       65.000090175387 electrons
N(Total)           :      132.000212164202 electrons
E(XC)              :      -86.169580401809 Eh       

---------------
SCF CONVERGENCE
---------------

  Last Energy change         ...    3.3315e-09  Tolerance :   1.0000e-08
  Last MAX-Density change    ...    3.1649e-04  Tolerance :   1.0000e-07
  Last RMS-Density change    ...    1.6601e-06  Tolerance :   5.0000e-09
  Last DIIS Error            ...    2.4641e-03  Tolerance :   5.0000e-07
  Last Orbital Gradient      ...    6.6667e-06  Tolerance :   1.0000e-05
  Last Orbital Rotation      ...    3.7909e-05  Tolerance :   1.0000e-05


----------------------
UHF SPIN CONTAMINATION
----------------------

Warning: in a DFT calculation there is little theoretical justification to 
         calculate <S**2> as in Hartree-Fock theory. We will do it anyways
         but you should keep in mind that the values have only limited relevance

Expectation value of <S**2>     :     2.012195
Ideal value S*(S+1) for S=1.0   :     2.000000
Deviation                       :     0.012195

----------------
ORBITAL ENERGIES
----------------
                 SPIN UP ORBITALS
  NO   OCC          E(Eh)            E(eV) 
   0   1.0000     -19.341969      -526.3217 
   1   1.0000     -19.330809      -526.0181 
   2   1.0000     -19.324494      -525.8462 
   3   1.0000     -19.307876      -525.3940 
   4   1.0000     -14.595190      -397.1553 
   5   1.0000     -14.585425      -396.8896 
   6   1.0000     -14.562990      -396.2791 
   7   1.0000     -14.560844      -396.2207 
   8   1.0000     -10.515204      -286.1333 
   9   1.0000     -10.498101      -285.6679 
  10   1.0000     -10.482556      -285.2448 
  11   1.0000     -10.474059      -285.0136 
  12   1.0000     -10.446382      -284.2605 
  13   1.0000     -10.427613      -283.7498 
  14   1.0000     -10.413215      -283.3580 
  15   1.0000     -10.389337      -282.7082 
  16   1.0000     -10.367997      -282.1275 
  17   1.0000     -10.349542      -281.6253 
  18   1.0000      -1.241910       -33.7941 
  19   1.0000      -1.207083       -32.8464 
  20   1.0000      -1.181768       -32.1575 
  21   1.0000      -1.170632       -31.8545 
  22   1.0000      -1.124652       -30.6033 
  23   1.0000      -1.104129       -30.0449 
  24   1.0000      -1.066440       -29.0193 
  25   1.0000      -1.060113       -28.8471 
  26   1.0000      -0.959747       -26.1160 
  27   1.0000      -0.956724       -26.0338 
  28   1.0000      -0.854584       -23.2544 
  29   1.0000      -0.848233       -23.0816 
  30   1.0000      -0.817663       -22.2497 
  31   1.0000      -0.816626       -22.2215 
  32   1.0000      -0.784624       -21.3507 
  33   1.0000      -0.783430       -21.3182 
  34   1.0000      -0.697515       -18.9803 
  35   1.0000      -0.689737       -18.7687 
  36   1.0000      -0.686874       -18.6908 
  37   1.0000      -0.683684       -18.6040 
  38   1.0000      -0.640214       -17.4211 
  39   1.0000      -0.633016       -17.2253 
  40   1.0000      -0.619070       -16.8458 
  41   1.0000      -0.606493       -16.5035 
  42   1.0000      -0.597965       -16.2714 
  43   1.0000      -0.592865       -16.1327 
  44   1.0000      -0.572392       -15.5756 
  45   1.0000      -0.565993       -15.4015 
  46   1.0000      -0.552583       -15.0366 
  47   1.0000      -0.551447       -15.0056 
  48   1.0000      -0.549968       -14.9654 
  49   1.0000      -0.547712       -14.9040 
  50   1.0000      -0.531099       -14.4519 
  51   1.0000      -0.520313       -14.1584 
  52   1.0000      -0.518930       -14.1208 
  53   1.0000      -0.513071       -13.9614 
  54   1.0000      -0.509818       -13.8728 
  55   1.0000      -0.502999       -13.6873 
  56   1.0000      -0.499056       -13.5800 
  57   1.0000      -0.466446       -12.6926 
  58   1.0000      -0.433721       -11.8022 
  59   1.0000      -0.414042       -11.2667 
  60   1.0000      -0.404673       -11.0117 
  61   1.0000      -0.394297       -10.7294 
  62   1.0000      -0.388060       -10.5596 
  63   1.0000      -0.383660       -10.4399 
  64   1.0000      -0.380052       -10.3417 
  65   1.0000      -0.341911        -9.3039 
  66   1.0000      -0.230881        -6.2826 
  67   0.0000       0.006599         0.1796 
  68   0.0000       0.012021         0.3271 
  69   0.0000       0.028111         0.7649 
  70   0.0000       0.036497         0.9931 
  71   0.0000       0.041264         1.1228 
  72   0.0000       0.054401         1.4803 
  73   0.0000       0.057684         1.5697 
  74   0.0000       0.062037         1.6881 
  75   0.0000       0.064302         1.7497 
  76   0.0000       0.066531         1.8104 
  77   0.0000       0.071067         1.9338 

                 SPIN DOWN ORBITALS
  NO   OCC          E(Eh)            E(eV) 
   0   1.0000     -19.340403      -526.2791 
   1   1.0000     -19.324487      -525.8460 
   2   1.0000     -19.323744      -525.8258 
   3   1.0000     -19.307850      -525.3933 
   4   1.0000     -14.590444      -397.0262 
   5   1.0000     -14.585370      -396.8881 
   6   1.0000     -14.562107      -396.2551 
   7   1.0000     -14.560838      -396.2205 
   8   1.0000     -10.515447      -286.1399 
   9   1.0000     -10.498095      -285.6677 
  10   1.0000     -10.482560      -285.2450 
  11   1.0000     -10.473966      -285.0111 
  12   1.0000     -10.446251      -284.2569 
  13   1.0000     -10.418007      -283.4884 
  14   1.0000     -10.402733      -283.0728 
  15   1.0000     -10.389319      -282.7077 
  16   1.0000     -10.368383      -282.1381 
  17   1.0000     -10.349519      -281.6247 
  18   1.0000      -1.238714       -33.7071 
  19   1.0000      -1.207009       -32.8444 
  20   1.0000      -1.171623       -31.8815 
  21   1.0000      -1.170548       -31.8522 
  22   1.0000      -1.113646       -30.3038 
  23   1.0000      -1.104021       -30.0419 
  24   1.0000      -1.061401       -28.8822 
  25   1.0000      -1.059294       -28.8249 
  26   1.0000      -0.958296       -26.0766 
  27   1.0000      -0.934965       -25.4417 
  28   1.0000      -0.854432       -23.2503 
  29   1.0000      -0.837308       -22.7843 
  30   1.0000      -0.816996       -22.2316 
  31   1.0000      -0.803974       -21.8772 
  32   1.0000      -0.783454       -21.3189 
  33   1.0000      -0.779446       -21.2098 
  34   1.0000      -0.689919       -18.7736 
  35   1.0000      -0.688916       -18.7463 
  36   1.0000      -0.683679       -18.6039 
  37   1.0000      -0.674594       -18.3566 
  38   1.0000      -0.633201       -17.2303 
  39   1.0000      -0.629688       -17.1347 
  40   1.0000      -0.612438       -16.6653 
  41   1.0000      -0.599877       -16.3235 
  42   1.0000      -0.592787       -16.1306 
  43   1.0000      -0.590873       -16.0785 
  44   1.0000      -0.564631       -15.3644 
  45   1.0000      -0.557487       -15.1700 
  46   1.0000      -0.552107       -15.0236 
  47   1.0000      -0.547769       -14.9055 
  48   1.0000      -0.544373       -14.8131 
  49   1.0000      -0.535467       -14.5708 
  50   1.0000      -0.519376       -14.1329 
  51   1.0000      -0.518891       -14.1197 
  52   1.0000      -0.511830       -13.9276 
  53   1.0000      -0.503392       -13.6980 
  54   1.0000      -0.502431       -13.6718 
  55   1.0000      -0.499937       -13.6040 
  56   1.0000      -0.465450       -12.6655 
  57   1.0000      -0.459407       -12.5011 
  58   1.0000      -0.427207       -11.6249 
  59   1.0000      -0.404591       -11.0095 
  60   1.0000      -0.395083       -10.7508 
  61   1.0000      -0.385525       -10.4907 
  62   1.0000      -0.381958       -10.3936 
  63   1.0000      -0.381233       -10.3739 
  64   1.0000      -0.342487        -9.3195 
  65   0.0000      -0.096434        -2.6241 
  66   0.0000       0.007155         0.1947 
  67   0.0000       0.011630         0.3165 
  68   0.0000       0.027107         0.7376 
  69   0.0000       0.033997         0.9251 
  70   0.0000       0.040483         1.1016 
  71   0.0000       0.046286         1.2595 
  72   0.0000       0.055133         1.5003 
  73   0.0000       0.057938         1.5766 
  74   0.0000       0.063517         1.7284 
  75   0.0000       0.064982         1.7683 
*Only the first 10 virtual orbitals were printed.

                    ********************************
                    * MULLIKEN POPULATION ANALYSIS *
                    ********************************

--------------------------------------------
MULLIKEN ATOMIC CHARGES AND SPIN POPULATIONS
--------------------------------------------
   0 O :   -0.705596   -0.001335
   1 O :   -0.648433    0.258655
   2 O :   -0.712028    0.000777
   3 O :   -0.606132    0.056560
   4 N :   -0.075189    0.002576
   5 N :   -0.023019    0.207643
   6 N :    0.035434    0.000301
   7 N :   -0.098898    0.034486
[...]
[1739896392.265348] [ohm:257419:0]        ib_iface.c:1059 UCX  ERROR ibv_create_cq(cqe=256) failed: Connection timed out
[1739896392.270994] [ohm:257432:0]        ib_iface.c:1059 UCX  ERROR ibv_create_cq(cqe=256) failed: Connection timed out
[1739896392.278220] [ohm:257418:0]        ib_iface.c:1059 UCX  ERROR ibv_create_cq(cqe=256) failed: Connection timed out
[1739896392.279888] [ohm:257404:0]        ib_iface.c:1059 UCX  ERROR ibv_create_cq(cqe=256) failed: Connection timed out
[1739896392.283297] [ohm:257381:0]        ib_iface.c:1059 UCX  ERROR ibv_create_cq(cqe=256) failed: Connection timed out
[1739896392.283610] [ohm:257374:0]        ib_iface.c:1059 UCX  ERROR ibv_create_cq(cqe=256) failed: Connection timed out
[1739896392.284115] [ohm:257376:0]        ib_iface.c:1059 UCX  ERROR ibv_create_cq(cqe=256) failed: Connection timed out
[1739896392.285595] [ohm:257395:0]        ib_iface.c:1059 UCX  ERROR ibv_create_cq(cqe=256) failed: Connection timed out
[1739896392.285905] [ohm:257321:0]        ib_iface.c:1059 UCX  ERROR ibv_create_cq(cqe=256) failed: Connection timed out
[1739896392.286287] [ohm:257284:0]        ib_iface.c:1059 UCX  ERROR ibv_create_cq(cqe=256) failed: Connection timed out
[1739896392.286462] [ohm:257441:0]        ib_iface.c:1059 UCX  ERROR ibv_create_cq(cqe=256) failed: Connection timed out


           ************************************************************
           *        Program running with 64 parallel MPI-processes    *
           *              working on a common directory               *
           ************************************************************

------------------------------------------------------------------------------
                              ORCA PROPERTY CALCULATIONS
------------------------------------------------------------------------------

GBWName                                 ... orca.gbw
Number of atoms                         ...     30
Number of basis functions               ...    882
Max core memory                         ...   1024 MB

Electric properties:
Dipole moment                           ... YES
Quadrupole moment                       ...  NO
Static polarizability (Dipole/Dipole)   ...  NO
Static polarizability (Dipole/Quad.)    ...  NO
Static polarizability (Quad./Quad.)     ...  NO
Static polarizability (Velocity)        ...  NO

Atomic electric properties:
Dipole moment                           ...  NO
Quadrupole moment                       ...  NO
Static polarizability                   ...  NO

Choice of electric origin               ... Center of mass
Position of electric origin             ...     0.065616    -0.000796     0.118698

General magnetic properties:
Magnetizability                         ...  NO

EPR properties:
g-Tensor (aka g-matrix)                 ...  NO
Zero-Field splitting spin-orbit         ...  NO
Zero-field splitting spin-spin          ...  NO
Hyperfine couplings                     ...  NO (   0 nuclei)
Quadrupole couplings                    ...  NO (   0 nuclei)
Contact density                         ...  NO (   0 nuclei)

NMR properties:
Chemical shifts                         ...  NO (   0 nuclei)
Spin-rotation constants                 ...  NO (   0 nuclei)
Spin-spin couplings                     ...  NO (   0 nuclei,    0 pairs)

Choice of magnetic origin               ... GIAO
Position of magnetic origin             ...     0.000000     0.000000     0.000000

Properties with geometric perturbations:
SCF Hessian                             ...  NO
IR spectrum                             ...  NO
VCD spectrum                            ...  NO
X-ray spectroscopy properties:
SCF XES/XAS/RIXS spectra                ...  NO


-------------
DIPOLE MOMENT
-------------

Method             : SCF
Type of density    : Electron Density
Multiplicity       :   3
Irrep              :   0
Energy             :  -908.7261215027579055 Eh
Relativity type    : 
Basis              : AO
                                X                 Y                 Z
Electronic contribution:     -3.515470354      -8.858797851      -6.021513948
Nuclear contribution   :      2.688249530       9.908177735       8.582637103
                        -----------------------------------------
Total Dipole Moment    :     -0.827220824       1.049379884       2.561123155
                        -----------------------------------------
Magnitude (a.u.)       :      2.888744407
Magnitude (Debye)      :      7.342604755



--------------------
Rotational spectrum 
--------------------
 
Rotational constants in cm-1:             0.017997             0.013325             0.011063 
Rotational constants in MHz :           539.540946           399.461928           331.671507 

Dipole components along the rotational axes: 
x,y,z [a.u.] :     1.728796     1.097278     2.037668 
x,y,z [Debye]:     4.394249     2.789059     5.179340 

 

-------------
DIPOLE MOMENT
-------------

Method             : TDA/CIS
Type of density    : Electron Density
Level              : Relaxed density
State              :   1
Multiplicity       :   3
Irrep              :   0
Energy             :     0.0000000000000000 Eh
Relativity type    : 
Basis              : AO
                                X                 Y                 Z
Electronic contribution:     -3.786890393      -8.901358786      -5.645941909
Nuclear contribution   :      2.688249530       9.908177735       8.582637103
                        -----------------------------------------
Total Dipole Moment    :     -1.098640863       1.006818949       2.936695194
                        -----------------------------------------
Magnitude (a.u.)       :      3.293155752
Magnitude (Debye)      :      8.370536704



--------------------
Rotational spectrum 
--------------------
 
Rotational constants in cm-1:             0.017997             0.013325             0.011063 
Rotational constants in MHz :           539.540946           399.461928           331.671507 

Dipole components along the rotational axes: 
x,y,z [a.u.] :     2.066449     1.026094     2.349850 
x,y,z [Debye]:     5.252496     2.608123     5.972844 

 

Dipole moment calculation done in   0.2 sec 

Maximum memory used throughout the entire PROP-calculation: 80.6 MB
[1739896394.667066] [ohm:257630:0]        ib_iface.c:1059 UCX  ERROR ibv_create_cq(cqe=256) failed: Connection timed out
[1739896394.674373] [ohm:257629:0]        ib_iface.c:1059 UCX  ERROR ibv_create_cq(cqe=256) failed: Connection timed out
[1739896394.689321] [ohm:257628:0]        ib_iface.c:1059 UCX  ERROR ibv_create_cq(cqe=256) failed: Connection timed out
[1739896394.731359] [ohm:257635:0]        ib_iface.c:1059 UCX  ERROR ibv_create_cq(cqe=256) failed: Connection timed out
[1739896394.731617] [ohm:257673:0]        ib_iface.c:1059 UCX  ERROR ibv_create_cq(cqe=256) failed: Connection timed out
[1739896394.731843] [ohm:257634:0]        ib_iface.c:1059 UCX  ERROR ibv_create_cq(cqe=256) failed: Connection timed out
[1739896394.734948] [ohm:257636:0]        ib_iface.c:1059 UCX  ERROR ibv_create_cq(cqe=256) failed: Connection timed out
[1739896394.769032] [ohm:257631:0]        ib_iface.c:1059 UCX  ERROR ibv_create_cq(cqe=256) failed: Connection timed out
[1739896394.803288] [ohm:257648:0]        ib_iface.c:1059 UCX  ERROR ibv_create_cq(cqe=256) failed: Connection timed out
[1739896394.803343] [ohm:257654:0]        ib_iface.c:1059 UCX  ERROR ibv_create_cq(cqe=256) failed: Connection timed out
[1739896394.805858] [ohm:257633:0]        ib_iface.c:1059 UCX  ERROR ibv_create_cq(cqe=256) failed: Connection timed out
[1739896394.811097] [ohm:257658:0]        ib_iface.c:1059 UCX  ERROR ibv_create_cq(cqe=256) failed: Connection timed out
[1739896394.811330] [ohm:257650:0]        ib_iface.c:1059 UCX  ERROR ibv_create_cq(cqe=256) failed: Connection timed out
[1739896394.811908] [ohm:257665:0]        ib_iface.c:1059 UCX  ERROR ibv_create_cq(cqe=256) failed: Connection timed out
[1739896394.818165] [ohm:257674:0]        ib_iface.c:1059 UCX  ERROR ibv_create_cq(cqe=256) failed: Connection timed out
[1739896394.818387] [ohm:257638:0]        ib_iface.c:1059 UCX  ERROR ibv_create_cq(cqe=256) failed: Connection timed out
[1739896394.819765] [ohm:257681:0]        ib_iface.c:1059 UCX  ERROR ibv_create_cq(cqe=256) failed: Connection timed out
[1739896394.822811] [ohm:257661:0]        ib_iface.c:1059 UCX  ERROR ibv_create_cq(cqe=256) failed: Connection timed out
[1739896394.833804] [ohm:257697:0]        ib_iface.c:1059 UCX  ERROR ibv_create_cq(cqe=256) failed: Connection timed out
[1739896394.844203] [ohm:257746:0]        ib_iface.c:1059 UCX  ERROR ibv_create_cq(cqe=256) failed: Connection timed out
[1739896394.850069] [ohm:257716:0]        ib_iface.c:1059 UCX  ERROR ibv_create_cq(cqe=256) failed: Connection timed out
[1739896394.852211] [ohm:257719:0]        ib_iface.c:1059 UCX  ERROR ibv_create_cq(cqe=256) failed: Connection timed out
[1739896394.885569] [ohm:257683:0]        ib_iface.c:1059 UCX  ERROR ibv_create_cq(cqe=256) failed: Connection timed out
[1739896394.886502] [ohm:257739:0]        ib_iface.c:1059 UCX  ERROR ibv_create_cq(cqe=256) failed: Connection timed out
[1739896394.889651] [ohm:257652:0]        ib_iface.c:1059 UCX  ERROR ibv_create_cq(cqe=256) failed: Connection timed out
[1739896394.894602] [ohm:257741:0]        ib_iface.c:1059 UCX  ERROR ibv_create_cq(cqe=256) failed: Connection timed out
[1739896394.902632] [ohm:257637:0]        ib_iface.c:1059 UCX  ERROR ibv_create_cq(cqe=256) failed: Connection timed out
[1739896394.909754] [ohm:257632:0]        ib_iface.c:1059 UCX  ERROR ibv_create_cq(cqe=256) failed: Connection timed out
[1739896394.913778] [ohm:257651:0]        ib_iface.c:1059 UCX  ERROR ibv_create_cq(cqe=256) failed: Connection timed out
[1739896394.919588] [ohm:257725:0]        ib_iface.c:1059 UCX  ERROR ibv_create_cq(cqe=256) failed: Connection timed out
[1739896394.933560] [ohm:257748:0]        ib_iface.c:1059 UCX  ERROR ibv_create_cq(cqe=256) failed: Connection timed out
[1739896394.949476] [ohm:257684:0]        ib_iface.c:1059 UCX  ERROR ibv_create_cq(cqe=256) failed: Connection timed out
[1739896394.951873] [ohm:257704:0]        ib_iface.c:1059 UCX  ERROR ibv_create_cq(cqe=256) failed: Connection timed out
[1739896394.958600] [ohm:257688:0]        ib_iface.c:1059 UCX  ERROR ibv_create_cq(cqe=256) failed: Connection timed out
[1739896394.958821] [ohm:257649:0]        ib_iface.c:1059 UCX  ERROR ibv_create_cq(cqe=256) failed: Connection timed out
[1739896394.974235] [ohm:257723:0]        ib_iface.c:1059 UCX  ERROR ibv_create_cq(cqe=256) failed: Connection timed out
[1739896394.975428] [ohm:257753:0]        ib_iface.c:1059 UCX  ERROR ibv_create_cq(cqe=256) failed: Connection timed out
[1739896394.987476] [ohm:257691:0]        ib_iface.c:1059 UCX  ERROR ibv_create_cq(cqe=256) failed: Connection timed out
[1739896394.988683] [ohm:257675:0]        ib_iface.c:1059 UCX  ERROR ibv_create_cq(cqe=256) failed: Connection timed out
[1739896394.989450] [ohm:257765:0]        ib_iface.c:1059 UCX  ERROR ibv_create_cq(cqe=256) failed: Connection timed out
[1739896394.991984] [ohm:257775:0]        ib_iface.c:1059 UCX  ERROR ibv_create_cq(cqe=256) failed: Connection timed out
[1739896394.994565] [ohm:257680:0]        ib_iface.c:1059 UCX  ERROR ibv_create_cq(cqe=256) failed: Connection timed out
[1739896394.995155] [ohm:257678:0]        ib_iface.c:1059 UCX  ERROR ibv_create_cq(cqe=256) failed: Connection timed out
[1739896394.997015] [ohm:257713:0]        ib_iface.c:1059 UCX  ERROR ibv_create_cq(cqe=256) failed: Connection timed out
[1739896395.011307] [ohm:257694:0]        ib_iface.c:1059 UCX  ERROR ibv_create_cq(cqe=256) failed: Connection timed out
[1739896395.014405] [ohm:257679:0]        ib_iface.c:1059 UCX  ERROR ibv_create_cq(cqe=256) failed: Connection timed out
[1739896395.014476] [ohm:257686:0]        ib_iface.c:1059 UCX  ERROR ibv_create_cq(cqe=256) failed: Connection timed out
[1739896395.018599] [ohm:257687:0]        ib_iface.c:1059 UCX  ERROR ibv_create_cq(cqe=256) failed: Connection timed out
[1739896395.018819] [ohm:257655:0]        ib_iface.c:1059 UCX  ERROR ibv_create_cq(cqe=256) failed: Connection timed out
[1739896395.021901] [ohm:257773:0]        ib_iface.c:1059 UCX  ERROR ibv_create_cq(cqe=256) failed: Connection timed out
[1739896395.030605] [ohm:257667:0]        ib_iface.c:1059 UCX  ERROR ibv_create_cq(cqe=256) failed: Connection timed out
[1739896395.031936] [ohm:257685:0]        ib_iface.c:1059 UCX  ERROR ibv_create_cq(cqe=256) failed: Connection timed out
[1739896395.032467] [ohm:257768:0]        ib_iface.c:1059 UCX  ERROR ibv_create_cq(cqe=256) failed: Connection timed out
[1739896395.032541] [ohm:257689:0]        ib_iface.c:1059 UCX  ERROR ibv_create_cq(cqe=256) failed: Connection timed out
[1739896395.034634] [ohm:257758:0]        ib_iface.c:1059 UCX  ERROR ibv_create_cq(cqe=256) failed: Connection timed out
[1739896395.037481] [ohm:257743:0]        ib_iface.c:1059 UCX  ERROR ibv_create_cq(cqe=256) failed: Connection timed out
[1739896395.039450] [ohm:257734:0]        ib_iface.c:1059 UCX  ERROR ibv_create_cq(cqe=256) failed: Connection timed out
[1739896395.041100] [ohm:257732:0]        ib_iface.c:1059 UCX  ERROR ibv_create_cq(cqe=256) failed: Connection timed out
[1739896395.042055] [ohm:257706:0]        ib_iface.c:1059 UCX  ERROR ibv_create_cq(cqe=256) failed: Connection timed out
[1739896395.044720] [ohm:257762:0]        ib_iface.c:1059 UCX  ERROR ibv_create_cq(cqe=256) failed: Connection timed out
[1739896395.045465] [ohm:257715:0]        ib_iface.c:1059 UCX  ERROR ibv_create_cq(cqe=256) failed: Connection timed out
[1739896395.046021] [ohm:257756:0]        ib_iface.c:1059 UCX  ERROR ibv_create_cq(cqe=256) failed: Connection timed out
[1739896395.046337] [ohm:257682:0]        ib_iface.c:1059 UCX  ERROR ibv_create_cq(cqe=256) failed: Connection timed out
[1739896395.047097] [ohm:257639:0]        ib_iface.c:1059 UCX  ERROR ibv_create_cq(cqe=256) failed: Connection timed out

--------------------------------
SUGGESTED CITATIONS FOR THIS RUN
--------------------------------

Below you find a list of papers that are relevant to this ORCA run
We neither can nor want to force you to cite these papers, but we appreciate if you do
You receive ORCA, which is the product of decades of hard work by many enthusiastic individuals, for free
The only thing we kindly ask in return is that you cite our papers,
We deeply appreciate it, if you show your appreciation for ORCA by not just citing the generic ORCA reference.

Please note that relegating all ORCA citations to the supporting information does *not* help us.
SI sections are not indexed - citations you put there will not count into any citation statistics
But we need these citations in order to attract the funding resources that allow us to do what we are doing

Therefore, if you are a happy ORCA user, please consider citing a few of the papers listed below in the main body of your paper

In addition to the list printed below, the program has created the file orca.bibtex that contains the list in bibtex format
You can import this file easily into all common literature databanks and citation aid programs


List of essential papers. We consider these as the minimum necessary citations

  1. Neese,F.
     Software update: the ORCA program system, version 5.0
     WIRES Comput. Molec. Sci., 2022 12(1)e1606
     doi.org/10.1002/wcms.1606

List of papers to cite with high priority. The work reported in these papers was absolutely
necessary for this run to complete.
Our perspective: the developers of density functionals and basis sets usually get cited in chemistry papers
Good! But without the algorithms to do something with them, the functionals or basis sets would not do anything.
Hence, in our opinion, the algorithm design and method developments papers are equally worthy of getting cited

  1. Neese,F.; Olbrich,G.
     Efficient use of the resolution of the identity approximation in time-dependent density functional calculations with hybrid density functionals
     Chem. Phys. Lett., 2002 362 170-178
     doi.org/10.1016/s0009-2614(02)01053-9
  2. Neese,F.
     An improvement of the resolution of the identity approximation for the formation of the Coulomb matrix
     J. Comp. Chem., 2003 24(14)1740-1747
     doi.org/10.1002/jcc.10318
  3. Neese,F.; Wennmohs,F.; Hansen,A.; Becker,U.
     Efficient, approximate and parallel Hartree-Fock and hybrid DFT calculations. A 'chain-of-spheres' algorithm for the Hartree-Fock exchange
     Chem. Phys., 2009 356(1-3)98-109
     doi.org/10.1016/j.chemphys.2008.10.036
  4. Petrenko,T.; Kossmann,S.; Neese,F.
     Efficient time-dependent density functional theory approximations for hybrid density functionals: Analytical gradients and parallelization
     J. Chem. Phys., 2011 134 054116
     doi.org/10.1063/1.3533441
  5. Helmich-Paris,B.; de Souza,B.; Neese,F.; Izsák,R.
     An improved chain of spheres for exchange algorithm
     J. Chem. Phys., 2021 155 104109
     doi.org/doi: 10.1063/5.0058766.
  6. Neese,F.
     The SHARK Integral Generation and Digestion System
     J. Comp. Chem., 2022  1-16
     doi.org/10.1002/jcc.26942
  7. Lehtola,S.; Steigemann,C.; Oliveira,M.; Marques,M.
     Recent developments in Libxc - A comprehensive library of functionals for density functional theory
     Software X, 2018 7 
     doi.org/10.1016/j.softx.2017.11.002
  8. Grimme,S.; Antony,J.; Ehrlich,S.; Krieg,H.
     A consistent and accurate ab initio parametrization of density functional dispersion correction (DFT-D) for the 94 elements H-Pu
     J. Chem. Phys., 2010 132 154104-XXXX
     doi.org/10.1063/1.3382344
  9. Grimme,S.; Ehrlich,S.; Goerigk,L.
     Effect of the damping function in dispersion corrected density functional theory
     J. Comput. Chem., 2011 32(7)1456-1465
     doi.org/10.1002/jcc.21759

List of suggested additional citations. These are papers that are important in the 'surrounding' of 
of this run, or papers that preceded the highly important papers. If you like your results we are grateful for a citation.

  1. Izsak,R.; Neese,F.
     An overlap fitted chain of spheres exchange method
     J. Chem. Phys., 2011 135 144105
     doi.org/10.1063/1.3646921
  2. Izsak,R.; Hansen,A.; Neese,F.
     The resolution of identity and chain of spheres approximations for the LPNO-CCSD singles Fock term
     Molec. Phys., 2012 110 2413-2417
     doi.org/10.1080/00268976.2012.687466
  3. Neese,F.
     The ORCA program system
     WIRES Comput. Molec. Sci., 2012 2(1)73-78
     doi.org/10.1002/wcms.81
  4. Izsak,R.; Neese,F.; Klopper,W.
     Robust fitting techniques in the chain of spheres approximation to the Fock exchange: The role of the complementary space
     J. Chem. Phys., 2013 139 
     doi.org/10.1063/1.4819264
  5. Neese,F.
     Software update: the ORCA program system, version 4.0
     WIRES Comput. Molec. Sci., 2018 8(1)1-6
     doi.org/10.1002/wcms.1327
  6. Neese,F.; Wennmohs,F.; Becker,U.; Riplinger,C.
     The ORCA quantum chemistry program package
     J. Chem. Phys., 2020 152 Art. No. L224108
     doi.org/10.1063/5.0004608

List of optional additional citations

  1. Neese,F.
     Approximate second-order SCF convergence for spin unrestricted wavefunctions
     Chem. Phys. Lett., 2000 325(1-3)93-98
     doi.org/10.1016/s0009-2614(00)00662-x

Timings for individual modules:

Sum of individual times          ...      345.680 sec (=   5.761 min)
Startup calculation              ...        6.565 sec (=   0.109 min)   1.9 %
SCF iterations                   ...      193.711 sec (=   3.229 min)  56.0 %
Property integrals               ...        4.275 sec (=   0.071 min)   1.2 %
Property calculations            ...        2.830 sec (=   0.047 min)   0.8 %
CIS module                       ...      138.299 sec (=   2.305 min)  40.0 %
                             ****ORCA TERMINATED NORMALLY****
TOTAL RUN TIME: 0 days 0 hours 5 minutes 47 seconds 685 msec
