30
Properties=species:S:1:pos:R:3:REF_forces:R:3 REF_energy=-24726.943592272833 pbc="F F F"
O        2.08894376       0.14437625      -1.22300999      -0.05839805       0.30884632       0.40498813
O       -0.60782434       2.47095163      -2.59435100       1.58119671       0.01199560      -0.24946275
O        0.44349296      -3.70342677       0.40959562       0.06298219       0.56811656       0.43452756
O       -2.40852353      -1.22076637      -1.09888640      -0.10920358      -0.44688112       0.08327235
N        0.46256289      -1.90726789       1.85581262       0.01932120      -0.77061085      -0.38133706
N       -1.43460104      -0.20972626       0.69855489      -0.31173139      -0.23658986      -1.67303236
N        1.12821924      -1.70131061      -0.38230943      -0.05241979       0.52946588       0.45943883
N       -0.98474738       0.45393558      -1.59223118       0.71190881      -0.65961992       0.73008238
C        1.13083509       0.31196651       1.01307740      -0.07175447      -0.07143327      -0.65158303
C       -0.28924135       2.36029790      -0.30610032       2.26280451       0.24551922      -2.28369505
C        0.57501969      -0.51831504       2.11428991       0.62653530      -0.15127917       0.02048220
C       -0.37524681       0.40842359       1.40024050       0.26961900      -0.25002858      -0.18758367
C        2.05583849       1.45798518       1.33062786       0.08532849      -0.24687956      -0.27651183
C       -0.96286640       3.39386554       0.39750902      -1.05774883       0.30229818       0.41666974
C        1.49213843      -0.36504489      -0.30886213      -0.06409662      -0.70104126       0.56432498
C       -0.47665195       1.77702633      -1.59643830      -4.27989929       0.10456172       2.36879213
C        0.64450673      -2.52547983       0.62440865      -0.02359415      -0.18795681       0.51766911
C       -1.63216157      -0.40544805      -0.67774711       0.53465062       1.64545187       0.79310328
H        0.88331639      -0.25293724       3.12522556      -0.08762148      -0.19936285      -0.31375098
H       -0.65721716       1.29877395       1.91042353       0.11138659       0.51215477       0.42149855
H        2.18378972       1.98519194       0.38560393       0.43878575       0.06101947       0.41349466
H        1.59781650       2.12605922       2.03948104      -0.15952448       0.27490776       0.29453260
H        3.00102472       1.08781326       1.76610578      -0.39191723       0.16901956      -0.40472950
H       -1.96369362       3.03118932       0.70155481       0.05847424       0.37974058      -0.08171975
H       -0.40940579       3.72489748       1.27047627      -0.06005748       0.16061093       0.19765488
H       -1.13060339       4.29094247      -0.25481892       0.11092680      -0.90541355       0.07923861
H        0.21467212      -2.53054873       2.60242864      -0.14430317      -0.02761584      -0.08585446
H       -2.03477644      -0.83454218       1.20636116       0.11269052      -0.14621760       0.19955639
H        1.42626626      -2.18806874      -1.20006818      -0.02102354      -0.22578508      -0.49779325
H       -1.28874666       0.15314432      -2.48060716      -0.08214131      -0.04298383      -1.29505791
30
Properties=species:S:1:pos:R:3:REF_forces:R:3 REF_energy=-24733.137582942894 pbc="F F F"
O        2.51292217       1.24345452      -0.36297590      -0.07364612      -0.16881436       0.05240993
O       -0.78375297       0.83737716      -2.40193936      -0.07439861      -0.09840743       0.19396500
O        0.57212356      -2.68780841      -1.56335924       0.05990551       0.07850751       0.13601893
O       -2.47791866      -1.56822603       1.06787500      -0.02774749      -0.04949315       0.13067560
N        0.59679391      -2.11072033       0.63955497       0.02848879       0.01520733       0.03316160
N       -1.85285950       0.58963453       1.42816001       0.02847580       0.28807508       0.49740301
N        1.61980403      -0.76435085      -0.92430660       0.08516535       0.07453016      -0.06687094
N       -1.68700840      -0.32068056      -0.67017509      -0.05746435      -0.17665089       0.05176313
C        1.43717414       0.00411554       1.35420213       0.24015172      -0.14591450      -0.12525837
C       -0.84793790       1.91323580      -0.29778195      -0.69192799      -0.28049756       2.05153660
C        0.81461960      -1.15362316       1.60199001       0.05092688       0.01040240       0.04367385
C       -1.24814896       1.73981425       1.00362376       0.22247821      -0.06463369      -2.17410084
C        1.71316640       1.04912935       2.38412181      -0.18381673      -0.35094241       0.34220614
C       -0.18659979       3.14837204      -0.78633088       0.11026796       0.16048786      -0.30297088
C        1.91604844       0.24436401      -0.01139556       0.03010238       0.20513972       0.03868958
C       -1.08572268       0.82250850      -1.22249811       0.16150375       0.12430076      -0.45161925
C        0.90911816      -1.91919626      -0.68824416      -0.15878449      -0.14826463      -0.17832324
C       -2.04553278      -0.52174719       0.63572987       0.01586529      -0.04162405      -0.35369666
H        0.44376456      -1.40383284       2.58295358      -0.03679583      -0.02170409       0.04392474
H       -1.11020408       2.50114328       1.74064823       0.01156084       0.22451381       0.28791441
H        1.35851691       2.01188539       2.04961609      -0.09428432       0.27922482      -0.09490663
H        1.22970948       0.79628837       3.33646479       0.12257436       0.06883799      -0.25591113
H        2.77800136       1.15132932       2.55781691       0.16250053       0.01479930       0.01497565
H       -0.73806434       3.57115813      -1.63140267       0.10241316      -0.07954614       0.12428356
H       -0.12039863       3.89808899      -0.00096804       0.00408484      -0.03146286       0.01307000
H        0.81965355       2.91262904      -1.13598635      -0.06319953       0.06896495       0.00821326
H       -0.02084619      -2.88011623       0.83220667      -0.00445583      -0.00510376      -0.03679777
H       -2.10971437       0.48026724       2.39636344       0.01274941      -0.03987625      -0.14896820
H        1.82494467      -0.56613512      -1.89406535      -0.02812626      -0.02871934       0.08612369
H       -1.79748096      -1.11836218      -1.28405647       0.04599232       0.14077153       0.02786826
30
Properties=species:S:1:pos:R:3:REF_forces:R:3 REF_energy=-24727.501498866077 pbc="F F F"
O        2.37105601      -0.35796004      -1.13388858      -0.12120899      -0.01523000       0.10579088
O       -0.16330571       2.85363706      -2.23266777       0.51722648       0.76291178      -0.76947039
O        0.20145222      -3.80361003       0.81585353      -0.02067883      -0.05423928      -0.03401233
O       -2.07426548      -1.05802526      -1.47202341      -0.38053425      -0.38851324      -0.24123669
N        0.39866376      -1.89148499       2.02784484       0.17663556      -0.02128589      -0.50716585
N       -1.36675939      -0.21828796       0.50202590       0.27057383       0.23280737       0.02490168
N        1.08710035      -1.96637064      -0.19841607      -0.12713501      -0.16329200       0.03797299
N       -0.75695620       0.76782344      -1.59279107       0.12450116       0.15618853       0.16811540
C        1.41247631       0.11062934       0.99032150      -2.07508023       0.83298319       0.09904145
C       -0.41280618       2.76212799      -0.07080462       0.63969323       0.09770739      -0.12965485
C        0.59141430      -0.47957093       2.07058491      -0.09442951      -0.40773481       0.26815392
C       -0.38600337       0.38039762       1.31992318       2.29344409      -0.46125159      -1.30295485
C        2.30940436       1.30071764       1.23363329      -0.43984215      -0.20379878      -0.05039083
C       -1.65044387       3.43345365       0.29695077      -0.50113870      -0.23620929       0.39310610
C        1.67463800      -0.71591300      -0.21063692       0.06329088       0.19535074       0.23718033
C       -0.43088122       2.09091325      -1.33312979      -0.93314423      -0.89344605       0.71934230
C        0.52733696      -2.64381301       0.88576388       0.04083754       0.17091702       0.12599922
C       -1.45715720      -0.21678226      -0.88007519       0.61991476       0.45420897       0.27264270
H        0.81664971      -0.15199021       3.06489582       0.14176702       0.15329594       0.36848254
H       -0.52296760       1.39265038       1.63214245       0.06456561       0.26872542       0.28428796
H        2.42644344       1.86719432       0.31625104       0.03058456       0.01433007       0.04050768
H        1.86828700       1.95230690       1.98426010       0.00732431       0.03071766      -0.02746763
H        3.28985113       0.98471933       1.58660032       0.00196067      -0.12349331      -0.02576104
H       -2.50530669       2.75414973       0.21001898      -0.17132819       0.13281251      -0.12338128
H       -1.64568705       3.88040869       1.28514489       0.14708331       0.05160166       0.05616931
H       -1.79650228       4.24178340      -0.42405307       0.02192792      -0.02564439      -0.22678398
H       -0.03576708      -2.35883504       2.79330998      -0.14977539      -0.18516465       0.24676887
H       -1.81273698      -1.03794623       0.87667536      -0.07843554      -0.13947238       0.01090466
H        1.23223799      -2.52574791      -1.02111707       0.00285594      -0.12847194      -0.05855331
H       -0.74595464       0.58752841      -2.58707061      -0.06008494      -0.10321319       0.02852820
30
Properties=species:S:1:pos:R:3:REF_forces:R:3 REF_energy=-24732.699681829105 pbc="F F F"
O        2.99935541       1.27231046      -0.49281316      -1.07801191      -1.17453889       0.34164825
O       -0.56832843       0.37521879      -1.86802534      -0.06472791       0.02087726       0.00276240
O        1.42683417      -2.80868414      -1.78912103      -0.28725490       0.11129168       0.27371603
O       -3.05509561      -1.36938422       1.51313622      -0.13479844      -0.78220709       0.15280023
N        0.73767857      -2.00836839       0.24518163      -0.41630329      -0.71243116      -0.57084779
N       -2.36653340       0.77355177       1.64292939       0.46893551       0.56247713      -0.14632201
N        2.16704048      -0.77908232      -1.09467164      -0.12514560       0.11329405       0.22691320
N       -1.99096445      -0.40058404      -0.27461864       0.84930971      -0.05683318      -0.37383889
C        1.50626564       0.11442605       0.99331478      -1.26984027      -0.91003905       0.92924887
C       -0.96501256       1.79137840      -0.00799747      -0.09938043       0.03804384      -0.55360475
C        0.76140007      -1.03867012       1.19896454       2.17120225       1.36416791      -0.53625144
C       -1.60967965       1.82144822       1.15316115      -0.11785228       0.42831587       0.85046146
C        1.64388374       1.19612942       2.02003223      -0.22779134       1.03220938      -0.90314100
C       -0.11291542       2.90098232      -0.54113284       0.42310597      -0.34617303       0.24747631
C        2.26615595       0.31134225      -0.23106835       0.52297977       0.11916854      -0.16609248
C       -1.12547394       0.59192432      -0.81554593      -0.23733974      -0.61054254       0.08408143
C        1.42618146      -1.92265506      -0.96315190       0.32321916      -0.07146011       0.00598980
C       -2.49384913      -0.43257089       1.00904463      -0.23796419       0.56308476      -0.55271900
H        0.35479229      -1.35636430       2.14940022      -0.32835583       0.52000996      -0.06037786
H       -1.51541720       2.66664148       1.83748023      -0.14408921      -0.24049506      -0.30185509
H        1.39607008       2.21189731       1.55812029       0.20631446      -1.42316011       0.69440023
H        0.98687905       0.99702422       2.86149197       0.18220185       0.14848590       0.16145274
H        2.69506419       1.27304424       2.29907294      -0.14347607       0.00820648       0.31149705
H       -0.40176565       3.14481921      -1.56389208      -0.01969401       0.17110968       0.20824978
H       -0.18870118       3.74324933       0.13878646      -0.11136903       0.30061435      -0.22836094
H        0.95050985       2.62026533      -0.56449377      -0.38291252      -0.04278865      -0.11615348
H        0.20731818      -2.87293557       0.34139125       0.27140376       0.52455650       0.17089285
H       -2.87194790       0.88098129       2.49479094      -0.07817381      -0.08643142       0.36260887
H        2.67504939      -0.73466828      -1.94452015       0.41581827       0.17941863      -0.70672776
H       -1.92123526      -1.28568825      -0.76949229      -0.29932818       0.27638936       0.20483115
30
Properties=species:S:1:pos:R:3:REF_forces:R:3 REF_energy=-24729.79850179922 pbc="F F F"
O        3.78744737       0.45761496      -0.02237061       0.04574075      -0.01845744      -0.03865331
O       -1.27850262       1.14804221      -2.49032791       0.01218729      -0.04139323       0.09918887
O        0.95089926      -2.87912001      -1.20897865      -0.08952959      -0.08866906      -0.06820123
O       -3.58634747      -1.23373681       0.56681813       0.38950757       0.29905760      -0.10574030
N        0.26376220      -1.43659726       0.39071773       0.16470654      -0.05533639      -0.10140594
N       -2.00000070       0.20851334       1.33075572      -0.02085224      -0.18067567      -0.08836812
N        2.36173763      -1.21688077      -0.58246543      -0.12578745      -0.21343537      -0.28470808
N       -2.19863027      -0.24321452      -0.93908232      -0.15285001      -0.20516905      -0.81655503
C        1.72591800       0.37687082       1.09596478       0.22667703      -0.31719249       0.11534220
C       -0.74498535       1.49450756      -0.19971317       0.48805814      -0.39271328       0.16538799
C        0.43034068      -0.32750468       1.28988430       0.25741861       0.21676751      -0.38684845
C       -0.66036545       0.74748348       1.11726061      -1.18918647       0.07220316      -0.03072234
C        2.08875666       1.51622276       1.96694962      -0.09757741      -0.70649801      -0.07877615
C       -0.60928097       2.96612599      -0.22269773      -0.41881842      -0.36112506      -0.16868206
C        2.71009876      -0.09275706       0.14038187      -0.07160593       0.30139999       0.13207462
C       -1.37975573       0.81152406      -1.32892741      -0.01697229       0.22307693       0.38406725
C        1.15995186      -1.91195393      -0.51475014       0.43175757       0.12730308      -0.01250823
C       -2.65612547      -0.47943788       0.34298323      -0.62999277      -0.39233547       0.26527180
H        0.33848922      -0.69459694       2.32685851       0.11272996       0.18731565      -0.07789773
H       -0.48482650       1.46579096       1.89900520       0.02816743       0.33311730       0.25193068
H        3.15967734       1.59196082       2.01437426       0.42149117       0.07029103      -0.00237919
H        1.72579941       2.45488068       1.58006173      -0.18890149       0.46981558      -0.18369695
H        1.67843380       1.38708382       2.96178491      -0.12555538       0.03032142       0.21362310
H       -1.41211246       3.40761471       0.38089541      -0.01311859       0.02472140      -0.09492196
H        0.31012375       3.27748714       0.22844851       0.60667882       0.27988505       0.16875012
H       -0.68159717       3.32802711      -1.24001127       0.02366768       0.13843296      -0.06104231
H       -0.53369688      -2.03503141       0.45589618      -0.34232822      -0.01089798       0.21280013
H       -2.34244417      -0.00777360       2.25186326       0.13077837       0.00604845       0.01933525
H        2.99940868      -1.54061964      -1.29652101      -0.03472483       0.10792925       0.17539435
H       -2.70063688      -0.71090089      -1.69028610       0.16086676       0.10644180       0.40067645
30
Properties=species:S:1:pos:R:3:REF_forces:R:3 REF_energy=-24731.392306360758 pbc="F F F"
O        2.95988846       1.25031012      -0.50119131      -0.47646553      -0.41876492       0.40808642
O       -0.79952605       0.21405430      -2.05922892       0.23886327       0.13536375       1.16393670
O        1.30914512      -2.72585584      -1.75006661       0.40009712       0.85995348       1.82320853
O       -3.13651243      -1.23612876       1.58684772      -0.11071786      -0.45391292      -0.32920557
N        0.59085376      -1.83672998       0.25398105       0.04532386      -1.86645016      -1.31164782
N       -2.27036141       0.83676621       1.57142964       1.39409853       1.07168238       0.47478869
N        2.20329105      -0.78048257      -0.98330650      -0.40976168      -1.02333714       0.46825867
N       -2.07705203      -0.45400576      -0.30496491       0.49709043      -0.32408692      -0.60427302
C        1.62314303       0.20637999       1.14160586      -3.22574386      -4.14973466      -1.12858590
C       -0.89518768       1.63738170      -0.17171790       0.03468661       2.28603399       4.39948761
C        0.70943483      -0.90423261       1.21187610       2.55317600       2.63435398       1.97243136
C       -1.35545884       1.78113540       1.16867643      -0.60691487      -1.00672974      -3.71439016
C        1.82808606       1.21828487       2.16446591       1.07947107       1.15616246       1.87581310
C        0.01398718       2.66875305      -0.70464528       1.58812432       1.96017245       0.92128448
C        2.26136298       0.29836900      -0.14746569       2.17964606       1.89692635      -0.15856030
C       -1.14760953       0.45636244      -0.90493003      -1.70606409      -0.90614033      -1.82337041
C        1.41581473      -1.87121083      -0.86164963      -1.44788314      -0.90554620      -1.97569600
C       -2.53047067      -0.39067160       0.96861496      -0.36522787       0.46475481       0.65437401
H        0.20343067      -1.14874938       2.14868412      -0.13893401       0.37844804      -0.40031221
H       -1.19898152       2.61764710       1.89699118       0.03621696      -0.86017135      -1.22566581
H        1.97593154       2.23739215       1.76932036      -0.32776899      -0.53678836      -0.11864162
H        1.04020488       1.23701005       2.92029248      -0.16654500      -0.02330299      -0.27869220
H        2.75563187       1.06985199       2.78604081      -0.64084601      -0.18340946      -0.78840665
H        0.26993395       2.49428841      -1.73626535      -0.29564442       0.28064294      -0.36278686
H       -0.22155509       3.77051078      -0.45189235      -0.41787514      -1.79545685      -0.84032097
H        0.98892374       2.62090102      -0.18698584      -0.24290305      -0.37035321      -0.29552439
H       -0.01058268      -2.68141989       0.25954069       0.46918380       1.23331865       0.60027069
H       -2.57160883       0.98359718       2.49889237      -0.71166688      -0.65813359       0.89635968
H        2.80400413      -0.83774807      -1.76564552       0.55837933       0.52739259      -0.82355912
H       -2.30651266      -1.28131515      -0.86656502       0.24123449       0.58757759       0.50469197
30
Properties=species:S:1:pos:R:3:REF_forces:R:3 REF_energy=-24729.254166720373 pbc="F F F"
O        3.25212642       0.30673938      -0.87173591      -0.97624908       0.18768755       0.94339033
O       -0.80339226       1.61678389      -2.30836757      -0.11599744       0.51297476      -0.70844161
O        0.39316876      -3.04995352      -0.26889158      -0.20633975      -1.10047488      -0.28753395
O       -2.96170553      -1.83827475      -0.51094102       0.24152685       0.56905329       0.79580773
N        0.31425358      -1.39016343       1.24212957       0.87032669      -1.04468813      -0.25279766
N       -2.03229599      -0.26703829       0.94427635      -0.46313818      -0.31603513       0.47755554
N        1.55917186      -1.17926187      -0.72466353       0.34073934       0.65683035       0.05560323
N       -1.48206851      -0.28040003      -1.27730056      -0.37437771       0.41257527      -0.45910149
C        1.68867047       0.55669069       0.91151789      -1.44256326      -0.08495765       0.94142570
C       -0.98002301       1.65667427       0.03005991       0.75671404      -0.90205886       0.10349236
C        0.38947254      -0.01706982       1.55348529       1.57186417       0.71940163      -0.46160872
C       -0.94791322       0.69052490       1.17267264      -1.27320535       0.98132405       1.02891810
C        2.51956475       1.52980821       1.62068350       1.00225044       0.60238519      -1.07150798
C       -0.76903814       3.08225728       0.19594916       0.02790157       0.78503147       0.12119308
C        2.23836371      -0.04847004      -0.25714677       0.86666980      -0.85144083      -1.82094674
C       -1.10562301       1.06666007      -1.27434900       0.40082086      -0.51346612       0.52366287
C        0.74140558      -1.95300054       0.06225807      -0.38880388       0.32508469       0.02420294
C       -2.25006662      -0.88828998      -0.26919711       0.59028960       0.11292718      -0.86514498
H        0.56182573       0.09930644       2.63275894      -0.32329327      -0.04400130      -0.23423403
H       -1.19041712       1.28911839       2.08188512      -0.22458191      -0.45662290      -0.62050101
H        3.50663948       1.45445981       1.13066879      -0.33902618       0.36399550       0.31440143
H        2.19016751       2.58041259       1.48999813       0.00462086      -0.44586521       0.21504051
H        2.66202175       1.31114514       2.66510691      -0.31965032      -0.03695993       0.50745209
H       -1.62095495       3.56137155       0.73928810       0.46336846      -0.25535858      -0.45940178
H        0.10817854       3.24754087       0.84068966      -0.15337274       0.15991826      -0.20664227
H       -0.61638298       3.53616021      -0.79808473      -0.12913811      -0.02547804       0.63972320
H       -0.34425863      -1.98092917       1.71098312      -0.04337148      -0.05582145       0.10785839
H       -2.39261607      -0.78774766       1.73053417      -0.07658443       0.22051102      -0.12319419
H        1.89314654      -1.57944518      -1.59693114      -0.12261060       0.03775070       0.48350108
H       -1.63816247      -0.57021544      -2.23347564      -0.14219348      -0.50399270       0.27387351
30
Properties=species:S:1:pos:R:3:REF_forces:R:3 REF_energy=-24730.92194431945 pbc="F F F"
O        2.57758712       1.29151957      -0.80621839      -1.84111968      -3.72132332       1.47914443
O       -0.87161223       1.44542957      -2.04316414      -0.60509334      -0.44236525       0.17555238
O        1.03074790      -2.99845487      -1.63008166      -0.01802462       0.63994507       0.76860964
O       -2.88243615      -1.65652216       0.63250540      -0.74192007      -1.14819062       0.39058774
N        0.68130228      -2.10943580       0.44307880       0.18179158       1.53216359       0.85944105
N       -2.08903296       0.26947781       1.57449379      -0.92437453      -0.21939296       1.90937844
N        1.85179599      -0.95022863      -1.20555832      -0.19247162       3.95991768       3.80028494
N       -1.86436503      -0.08307154      -0.68179472      -1.03354744      -4.30403156      -1.23969329
C        1.74989778       0.00516826       1.04307905      -1.24192250      -1.95151364       0.25674228
C       -1.03164131       1.89694233       0.23219722      -0.37107204       0.12206184       4.41875715
C        0.98925082      -1.09131892       1.35428607       0.85433498       0.29052339      -1.63483356
C       -1.41833582       1.47798798       1.55424510      -0.77867659      -0.01684253      -6.15606700
C        2.08574698       0.91707492       2.14058938      -1.30907767       0.68280819       1.86923166
C       -0.27822107       3.16970681       0.17852090       0.10287922       0.37185208      -1.70528565
C        2.05131835       0.23895026      -0.32439457       2.28050374       1.64666162      -2.98508210
C       -1.28294191       1.10640117      -0.94232006       1.76716867       1.24430422      -0.25980213
C        1.18550631      -2.05537973      -0.85650163      -0.53465324      -2.75201056      -1.12170575
C       -2.36493368      -0.59142054       0.53108364       2.04132409       2.25601776      -1.45205440
H        0.62107326      -1.08733594       2.35376129      -0.34530921      -0.89905736       0.43257128
H       -1.57279155       2.19247586       2.33815298       0.52157076      -0.25284524       0.58256803
H        1.24878719       1.67175909       2.19150760       0.99720322      -0.47786022       0.31535503
H        2.11502979       0.31958359       3.11209560      -0.11727777       0.98874811      -1.20688109
H        3.01451102       1.45315299       2.06722103       0.31395005       0.05521652      -0.37429269
H       -0.81632200       3.98673436      -0.37417129       0.49142094      -0.71153629       0.71598974
H       -0.11358993       3.34241432       1.20358988       0.26590956       1.30675822       1.09596074
H        0.72570669       3.07579554      -0.27641925      -0.59260627      -0.19310736      -0.01553942
H        0.14353612      -2.93115476       0.71114045       0.30418406       0.50459704      -0.30779836
H       -2.62781439       0.00804262       2.38557528       0.27198880       0.05603138       0.22402582
H        2.45949257      -0.85070522      -1.95241081       0.63790828      -0.51446501      -2.14402647
H       -1.80394907      -0.85189236      -1.42817255      -0.36667702       1.93177997       1.30549350
30
Properties=species:S:1:pos:R:3:REF_forces:R:3 REF_energy=-24726.07358926522 pbc="F F F"
O        2.41558320       0.46677509      -0.94739766      -1.62314961      -1.96597318       0.39717754
O       -0.97231762       2.42016531      -2.47905412       0.62470097       0.39680990       0.18440229
O        1.00770025      -3.71656569       0.06054985       0.09056865       0.31169145      -0.24725278
O       -2.31699448      -1.54505427      -0.96758977      -0.67736888      -0.71856830      -0.48816500
N        0.93014544      -2.06643926       1.65034274       0.22943878       0.05169347      -1.29969355
N       -1.27260869      -0.51365880       0.75992314      -0.72428754       0.25254357      -3.85109118
N        1.31347035      -1.53056660      -0.60723479       0.07151270      -0.85748373       0.44552228
N       -1.36679626       0.42268749      -1.52417711       0.11769020       0.57032104       0.32822332
C        1.16887419       0.30711849       0.97770494       0.89253625       1.00547656       1.10281350
C       -1.19645706       2.49148422      -0.08867716       0.92029404       0.40502849      -0.96947187
C        0.87330414      -0.69113814       2.06279015      -1.11891742      -0.00898509      -0.66654008
C       -0.26097459       0.19984309       1.40911931       0.40818400      -1.17213682       1.06616517
C        1.93407739       1.63038734       1.33709843      -1.10171841      -2.07073416       0.99296369
C       -1.50873069       3.86764788       0.45906669      -1.05593929      -1.17319777      -1.63671834
C        1.64742437      -0.24912398      -0.27550821       2.37317375       1.88167692      -1.74913641
C       -1.10729153       1.81821292      -1.43432281      -1.75755816       0.65780268       1.72155886
C        1.07454611      -2.54581823       0.33375951      -0.55980848       0.93803672       1.73580294
C       -1.68165030      -0.59567555      -0.61974284       1.12019234       1.26273793       1.97553478
H        1.12701804      -0.58104805       3.11227303       0.18683282       0.43954157      -0.37286729
H       -0.65695641       1.03628035       1.92943406       0.38557715       0.62444266       0.70410877
H        1.68928078       2.33940395       0.59549446      -0.13795056       0.85905441      -0.65336239
H        1.46265705       1.89515674       2.29954715       0.80426016       0.37558787      -0.25813573
H        3.02729004       1.47245838       1.36368076      -0.78188180       0.05013914       0.23880108
H       -1.37682712       3.93126356       1.52060399      -0.05607113      -0.25378674       0.54905050
H       -0.90764656       4.67375348       0.03902253       0.39829463      -0.31278016      -0.45518391
H       -2.54845248       4.17002153       0.17067919       0.54284681      -0.26576052       0.33101864
H        0.48480259      -2.74606425       2.22039900      -0.17688169      -0.39073591       0.50134333
H       -1.86644509      -1.16410904       1.20606749       0.02013086      -0.67150337       1.07026623
H        1.73959405      -1.92735434      -1.41279879       0.25699355       0.11717280      -0.89263988
H       -1.76203621       0.25510861      -2.44331283       0.34166560      -0.35500892       0.16083541
30
Properties=species:S:1:pos:R:3:REF_forces:R:3 REF_energy=-24729.42762356817 pbc="F F F"
O        3.32208775       0.75579879      -0.26270047       0.17551230       0.09068560      -0.09918639
O       -0.67707824       0.82904199      -2.51434696      -0.05269872      -0.01203324       0.19977913
O        0.67913516      -2.82794181      -1.14815576      -0.02167669      -0.06400017      -0.05105430
O       -3.55026492      -1.08560976       0.39192406      -0.10705327      -0.07195829       0.09001322
N        0.21998374      -1.60432601       0.70148247       0.06597268       0.00769122      -0.06803462
N       -2.00756697       0.35551396       1.25728200       0.09445129       0.05013822      -0.36541865