
                                 *****************
                                 * O   R   C   A *
                                 *****************

                                            #,                                       
                                            ###                                      
                                            ####                                     
                                            #####                                    
                                            ######                                   
                                           ########,                                 
                                     ,,################,,,,,                         
                               ,,#################################,,                 
                          ,,##########################################,,             
                       ,#########################################, ''#####,          
                    ,#############################################,,   '####,        
                  ,##################################################,,,,####,       
                ,###########''''           ''''###############################       
              ,#####''   ,,,,##########,,,,          '''####'''          '####       
            ,##' ,,,,###########################,,,                        '##       
           ' ,,###''''                  '''############,,,                           
         ,,##''                                '''############,,,,        ,,,,,,###''
      ,#''                                            '''#######################'''  
     '                                                          ''''####''''         
             ,#######,   #######,   ,#######,      ##                                
            ,#'     '#,  ##    ##  ,#'     '#,    #''#        ,####,   ,####,        
            ##       ##  ##   ,#'  ##            #'  '#       #'       #'  '#        
            ##       ##  #######   ##           ,######,      #####,   #    #        
            '#,     ,#'  ##    ##  '#,     ,#' ,#      #,     #,   #   #,  ,#        
             '#######'   ##     ##  '#######'  #'      '#     '####' # '####'        



                #########################################################
                #                        -***-                          #
                #          Department of theory and spectroscopy        #
                #                                                       #
                #                      Frank Neese                      #
                #                                                       #
                #     Directorship, Architecture, Infrastructure        #
                #                    SHARK, DRIVERS                     #
                #        Core code/Algorithms in most modules           #
                #                                                       #
                #        Max Planck Institute fuer Kohlenforschung      #
                #                Kaiser Wilhelm Platz 1                 #
                #                 D-45470 Muelheim/Ruhr                 #
                #                      Germany                          #
                #                                                       #
                #                  All rights reserved                  #
                #                        -***-                          #
                #########################################################


                         Program Version 6.0.0  -   RELEASE  -


 With contributions from (in alphabetic order):
   Daniel Aravena         : Magnetic Suceptibility
   Michael Atanasov       : Ab Initio Ligand Field Theory (pilot matlab implementation)
   Alexander A. Auer      : GIAO ZORA, VPT2 properties, NMR spectrum
   Ute Becker             : All parallelization in ORCA, NUMFREQ, NUMCALC
   Giovanni Bistoni       : ED, misc. LED, open-shell LED, HFLD
   Martin Brehm           : Molecular dynamics
   Dmytro Bykov           : pre 5.0 version of the SCF Hessian
   Marcos Casanova-Páez   : Triplet and SCS-CIS(D). UHF-(DLPNO)-IP/EA/STEOM-CCSD. UHF-CVS-IP/STEOM-CCSD
   Vijay G. Chilkuri      : MRCI spin determinant printing, contributions to CSF-ICE
   Pauline Colinet        : FMM embedding
   Dipayan Datta          : RHF DLPNO-CCSD density
   Achintya Kumar Dutta   : EOM-CC, STEOM-CC
   Nicolas Foglia         : Exact transition moments, OPA infrastructure, MCD improvements
   Dmitry Ganyushin       : Spin-Orbit,Spin-Spin,Magnetic field MRCI
   Miquel Garcia          : C-PCM and meta-GGA Hessian, CCSD/C-PCM, Gaussian charge scheme
   Tiago L. C. Gouveia    : GS-ROHF, GS-ROCIS
   Yang Guo               : DLPNO-NEVPT2, F12-NEVPT2, CIM, IAO-localization
   Andreas Hansen         : Spin unrestricted coupled pair/coupled cluster methods
   Ingolf Harden          : AUTO-CI MPn and infrastructure 
   Benjamin Helmich-Paris : MC-RPA, TRAH-(SCF,CASSCF), AVAS, COSX integrals, SCF dyn. polar.
   Lee Huntington         : MR-EOM, pCC
   Robert Izsak           : Overlap fitted RIJCOSX, COSX-SCS-MP3, EOM
   Riya Kayal             : Wick's Theorem for AUTO-CI, AUTO-CI UHF-CCSDT
   Emily Kempfer          : AUTO-CI, RHF CISDT and CCSDT
   Christian Kollmar      : KDIIS, OOCD, Brueckner-CCSD(T), CCSD density, CASPT2, CASPT2-K, improved NEVPT2
   Axel Koslowski         : Symmetry handling
   Simone Kossmann        : Meta GGA functionals, TD-DFT gradient, OOMP2, (MP2 Hessian; deprecated post 5.0)
   Lucas Lang             : DCDCAS
   Marvin Lechner         : AUTO-CI (C++ implementation), FIC-MRCC
   Spencer Leger          : CASSCF response
   Dagmar Lenk            : GEPOL surface, SMD, ORCA-2-JSON
   Dimitrios Liakos       : Extrapolation schemes; Compound Job, initial MDCI parallelization
   Dimitrios Manganas     : Further ROCIS development; embedding schemes. LFT, Crystal Embedding
   Dimitrios Pantazis     : SARC Basis sets
   Anastasios Papadopoulos: AUTO-CI, single reference methods and gradients
   Taras Petrenko         : pre 6.0 DFT Hessian and TD-DFT gradient, (ASA, deprecated), ECA, 1-Electron XAS/XES, NRVS
   Peter Pinski           : DLPNO-MP2, DLPNO-MP2 Gradient
   Christoph Reimann      : Effective Core Potentials
   Marius Retegan         : Local ZFS, SOC
   Christoph Riplinger    : Optimizer, TS searches, QM/MM, DLPNO-CCSD(T), (RO)-DLPNO pert. Triples
   Michael Roemelt        : Original ROCIS implementation
   Masaaki Saitow         : Open-shell DLPNO-CCSD energy and density
   Barbara Sandhoefer     : DKH picture change effects
   Kantharuban Sivalingam : CASSCF convergence/infrastructure, NEVPT2 and variants, FIC-MRCI
   Bernardo de Souza      : ESD, SOC TD-DFT
   Georgi Stoychev        : AutoAux, RI-MP2 NMR, DLPNO-MP2 response, X2C
   Van Anh Tran           : RI-MP2 g-tensors
   Willem Van den Heuvel  : Paramagnetic NMR
   Zikuan Wang            : NOTCH, Electric field optimization 
   Frank Wennmohs         : Technical directorship and infrastructure
   Hang Xu                : AUTO-CI-Response properties 


 We gratefully acknowledge several colleagues who have allowed us to
 interface, adapt or use parts of their codes:
   Stefan Grimme, W. Hujo, H. Kruse, P. Pracht,  : VdW corrections, initial TS optimization,
                  C. Bannwarth, S. Ehlert,         DFT functionals, gCP, sTDA/sTD-DF
                  L. Wittmann, M. Mueller
   Ed Valeev, F. Pavosevic, A. Kumar             : LibInt (2-el integral package), F12 methods
   Garnet Chan, S. Sharma, J. Yang, R. Olivares  : DMRG
   Ulf Ekstrom                                   : XCFun DFT Library
   Mihaly Kallay                                 : mrcc  (arbitrary order and MRCC methods)
   Frank Weinhold                                : gennbo (NPA and NBO analysis)
   Simon Mueller                                 : openCOSMO-RS
   Christopher J. Cramer and Donald G. Truhlar   : smd solvation model
   Lars Goerigk                                  : TD-DFT with DH, B97 family of functionals
   V. Asgeirsson, H. Jonsson                     : NEB implementation
   FAccTs GmbH                                   : IRC, NEB, NEB-TS, DLPNO-Multilevel, CI-OPT
                                                   MM, QMMM, 2- and 3-layer-ONIOM, Crystal-QMMM,
                                                   LR-CPCM, SF, NACMEs, symmetry and pop. for TD-DFT,
                                                   nearIR, NL-DFT gradient (VV10), updates on ESD,
                                                   ML-optimized integration grids, MBIS, APM,
                                                   GOAT, DOCKER, SOLVATOR, interface openCOSMO-RS
   S Lehtola, MJT Oliveira, MAL Marques          : LibXC Library
   Liviu Ungur et al                             : ANISO software


 Your calculation uses the libint2 library for the computation of 2-el integrals
 For citations please refer to: http://libint.valeyev.net

 Your ORCA version has been built with support for libXC version: 6.2.2
 For citations please refer to: https://libxc.gitlab.io

 This ORCA versions uses:
   CBLAS   interface :  Fast vector & matrix operations
   LAPACKE interface :  Fast linear algebra routines
   SCALAPACK package :  Parallel linear algebra routines
   Shared memory     :  Shared parallel matrices
   BLAS/LAPACK       :  OpenBLAS 0.3.27  USE64BITINT DYNAMIC_ARCH NO_AFFINITY Zen SINGLE_THREADED
        Core in use  :  Zen
   Copyright (c) 2011-2014, The OpenBLAS Project


Your calculation utilizes the atom-pairwise dispersion correction
with the Becke-Johnson damping scheme (D3BJ)


Warning: RI is on but no J-basis has been assigned. Assigning Def2/J (nothing to worry about!)
================================================================================

----- Orbital basis set information -----
Your calculation utilizes the basis: def2-TZVPPD
   F. Weigend and R. Ahlrichs, Phys. Chem. Chem. Phys. 7, 3297 (2005).
   D. Rappoport and F. Furche, J. Chem. Phys. 133, 134105 (2010)
   D. Rappoport, J. Chem. Phys. 155, 124102 (2021).

----- AuxJ basis set information -----
Your calculation utilizes the auxiliary basis: def2/J
   F. Weigend, Phys. Chem. Chem. Phys. 8, 1057 (2006).

================================================================================
                                        WARNINGS
                       Please study these warnings very carefully!
================================================================================

Using LibXC functional ID 531 : wB97M-V exchange-correlation functional
[ 1]  N. Mardirossian and M. Head-Gordon.,  J. Chem. Phys. 144, 214110 (2016)
Using LibXC functional ID 531 : wB97M-V exchange-correlation functional
[ 1]  N. Mardirossian and M. Head-Gordon.,  J. Chem. Phys. 144, 214110 (2016)

WARNING: B97M-V or wB97M-V functional requested.
  ===> : libXC variant has now been activated.
         Any manually given DFX/HFX/RangeSep scaling parameters are IGNORED!

Your calculation utilizes LibXC
 by S Lehtola, C Steigemann, MJT Oliveira & MAL Marques
Please cite in your paper:
 S Lehtola, C Steigemann, MJT Oliveira & MAL Marques, SoftwareX, 7, (2018), 1.
   


WARNING: your system is open-shell and RHF/RKS was chosen
  ===> : WILL SWITCH to UHF/UKS

INFO   : Checking CIS options ...

WARNING: CIS/ROCIS methods need fully converged wavefunctions
  ===> : Setting SCFConvForced true
         You can overwrite this default with %scf ConvForced false 


================================================================================
                                       INPUT FILE
================================================================================
NAME = orca.inp
|  1> ! Engrad def2-TZVPPD wB97M-D3BJ 
|  2> %pal nprocs 8 end%pal nprocs 64 end 
|  3> %tddft 
|  4>  Iroot 2 Nroots 3 
|  5> sf true 
|  6> end 
|  7> *xyz 0 3 
|  8> O   0.58875331 0.80773128 0.96471439
|  9> C   -0.06895917 -0.01191261 0.08809755
| 10> C   0.78993083 -0.66561025 -0.9036223
| 11> H   -0.85560129 0.51053231 -0.49174743
| 12> H   -0.74379527 -0.76188471 0.68393242
| 13> H   0.40285771 -0.57033206 -1.89272899
| 14> H   1.80421562 -1.01058436 -0.67585711
| 15> *
| 16> 
| 17>                          ****END OF INPUT****
================================================================================

                     *******************************
                     * Energy+Gradient Calculation *
                     *******************************

---------------------------------
CARTESIAN COORDINATES (ANGSTROEM)
---------------------------------
  O      0.588753    0.807731    0.964714
  C     -0.068959   -0.011913    0.088098
  C      0.789931   -0.665610   -0.903622
  H     -0.855601    0.510532   -0.491747
  H     -0.743795   -0.761885    0.683932
  H      0.402858   -0.570332   -1.892729
  H      1.804216   -1.010584   -0.675857

----------------------------
CARTESIAN COORDINATES (A.U.)
----------------------------
  NO LB      ZA    FRAG     MASS         X           Y           Z
   0 O     8.0000    0    15.999    1.112583    1.526391    1.823046
   1 C     6.0000    0    12.011   -0.130314   -0.022512    0.166480
   2 C     6.0000    0    12.011    1.492753   -1.257821   -1.707599
   3 H     1.0000    0     1.008   -1.616852    0.964766   -0.929268
   4 H     1.0000    0     1.008   -1.405569   -1.439753    1.292445
   5 H     1.0000    0     1.008    0.761291   -1.077771   -3.576739
   6 H     1.0000    0     1.008    3.409473   -1.909728   -1.277185

--------------------------------
INTERNAL COORDINATES (ANGSTROEM)
--------------------------------
 O      0   0   0     0.000000000000     0.00000000     0.00000000
 C      1   0   0     1.368524350143     0.00000000     0.00000000
 C      2   1   0     1.465783373328   114.76384394     0.00000000
 H      2   1   3     1.108140207836   113.20196814   238.40822769
 H      2   1   3     1.171700091725   109.53715052   128.79488756
 H      3   2   1     1.066412480197   112.02457962   228.48239170
 H      3   2   1     1.095288890463   122.84670405    36.04537032

---------------------------
INTERNAL COORDINATES (A.U.)
---------------------------
 O      0   0   0     0.000000000000     0.00000000     0.00000000
 C      1   0   0     2.586136229372     0.00000000     0.00000000
 C      2   1   0     2.769929147246   114.76384394     0.00000000
 H      2   1   3     2.094081510797   113.20196814   238.40822769
 H      2   1   3     2.214192284452   109.53715052   128.79488756
 H      3   2   1     2.015227533367   112.02457962   228.48239170
 H      3   2   1     2.069796040501   122.84670405    36.04537032

---------------------
BASIS SET INFORMATION
---------------------
There are 3 groups of distinct atoms

 Group   1 Type O   : 12s7p3d1f contracted to 6s4p3d1f pattern {621111/4111/111/1}
 Group   2 Type C   : 12s6p3d1f contracted to 6s3p3d1f pattern {621111/411/111/1}
 Group   3 Type H   : 5s3p1d contracted to 3s3p1d pattern {311/111/1}

Atom   0O    basis set group =>   1
Atom   1C    basis set group =>   2
Atom   2C    basis set group =>   2
Atom   3H    basis set group =>   3
Atom   4H    basis set group =>   3
Atom   5H    basis set group =>   3
Atom   6H    basis set group =>   3
---------------------------------
AUXILIARY/J BASIS SET INFORMATION
---------------------------------
There are 3 groups of distinct atoms

 Group   1 Type O   : 12s5p4d2f1g contracted to 6s4p3d1f1g pattern {711111/2111/211/2/1}
 Group   2 Type C   : 12s5p4d2f1g contracted to 6s4p3d1f1g pattern {711111/2111/211/2/1}
 Group   3 Type H   : 5s2p1d contracted to 3s1p1d pattern {311/2/1}

Atom   0O    basis set group =>   1
Atom   1C    basis set group =>   2
Atom   2C    basis set group =>   2
Atom   3H    basis set group =>   3
Atom   4H    basis set group =>   3
Atom   5H    basis set group =>   3
Atom   6H    basis set group =>   3
[1741610788.062617] [ohm:3444038:0]        ib_iface.c:1059 UCX  ERROR ibv_create_cq(cqe=256) failed: Connection timed out
[1741610788.066364] [ohm:3444033:0]        ib_iface.c:1059 UCX  ERROR ibv_create_cq(cqe=256) failed: Connection timed out
[1741610788.072770] [ohm:3444035:0]        ib_iface.c:1059 UCX  ERROR ibv_create_cq(cqe=256) failed: Connection timed out
[1741610788.092688] [ohm:3444034:0]        ib_iface.c:1059 UCX  ERROR ibv_create_cq(cqe=256) failed: Connection timed out
[1741610788.097717] [ohm:3444041:0]        ib_iface.c:1059 UCX  ERROR ibv_create_cq(cqe=256) failed: Connection timed out
[1741610788.100628] [ohm:3444040:0]        ib_iface.c:1059 UCX  ERROR ibv_create_cq(cqe=256) failed: Connection timed out
[1741610788.102877] [ohm:3444042:0]        ib_iface.c:1059 UCX  ERROR ibv_create_cq(cqe=256) failed: Connection timed out
[1741610788.104642] [ohm:3444045:0]        ib_iface.c:1059 UCX  ERROR ibv_create_cq(cqe=256) failed: Connection timed out
[1741610788.117995] [ohm:3444039:0]        ib_iface.c:1059 UCX  ERROR ibv_create_cq(cqe=256) failed: Connection timed out
[1741610788.119217] [ohm:3444047:0]        ib_iface.c:1059 UCX  ERROR ibv_create_cq(cqe=256) failed: Connection timed out
[1741610788.122363] [ohm:3444043:0]        ib_iface.c:1059 UCX  ERROR ibv_create_cq(cqe=256) failed: Connection timed out
[1741610788.122758] [ohm:3444037:0]        ib_iface.c:1059 UCX  ERROR ibv_create_cq(cqe=256) failed: Connection timed out
[1741610788.126798] [ohm:3444036:0]        ib_iface.c:1059 UCX  ERROR ibv_create_cq(cqe=256) failed: Connection timed out
[1741610788.126794] [ohm:3444046:0]        ib_iface.c:1059 UCX  ERROR ibv_create_cq(cqe=256) failed: Connection timed out
[1741610788.147881] [ohm:3444082:0]        ib_iface.c:1059 UCX  ERROR ibv_create_cq(cqe=256) failed: Connection timed out
[1741610788.153155] [ohm:3444090:0]        ib_iface.c:1059 UCX  ERROR ibv_create_cq(cqe=256) failed: Connection timed out
[1741610788.156414] [ohm:3444091:0]        ib_iface.c:1059 UCX  ERROR ibv_create_cq(cqe=256) failed: Connection timed out
[1741610788.191091] [ohm:3444115:0]        ib_iface.c:1059 UCX  ERROR ibv_create_cq(cqe=256) failed: Connection timed out
[1741610788.193726] [ohm:3444063:0]        ib_iface.c:1059 UCX  ERROR ibv_create_cq(cqe=256) failed: Connection timed out
[1741610788.204205] [ohm:3444099:0]        ib_iface.c:1059 UCX  ERROR ibv_create_cq(cqe=256) failed: Connection timed out
[1741610788.206049] [ohm:3444044:0]        ib_iface.c:1059 UCX  ERROR ibv_create_cq(cqe=256) failed: Connection timed out
[1741610788.206981] [ohm:3444094:0]        ib_iface.c:1059 UCX  ERROR ibv_create_cq(cqe=256) failed: Connection timed out
[1741610788.207002] [ohm:3444103:0]        ib_iface.c:1059 UCX  ERROR ibv_create_cq(cqe=256) failed: Connection timed out
[1741610788.221879] [ohm:3444074:0]        ib_iface.c:1059 UCX  ERROR ibv_create_cq(cqe=256) failed: Connection timed out
[1741610788.237679] [ohm:3444177:0]        ib_iface.c:1059 UCX  ERROR ibv_create_cq(cqe=256) failed: Connection timed out
[1741610788.243883] [ohm:3444093:0]        ib_iface.c:1059 UCX  ERROR ibv_create_cq(cqe=256) failed: Connection timed out
[1741610788.247433] [ohm:3444096:0]        ib_iface.c:1059 UCX  ERROR ibv_create_cq(cqe=256) failed: Connection timed out
[1741610788.268772] [ohm:3444101:0]        ib_iface.c:1059 UCX  ERROR ibv_create_cq(cqe=256) failed: Connection timed out
[1741610788.269704] [ohm:3444066:0]        ib_iface.c:1059 UCX  ERROR ibv_create_cq(cqe=256) failed: Connection timed out
[1741610788.270698] [ohm:3444143:0]        ib_iface.c:1059 UCX  ERROR ibv_create_cq(cqe=256) failed: Connection timed out
[1741610788.274432] [ohm:3444097:0]        ib_iface.c:1059 UCX  ERROR ibv_create_cq(cqe=256) failed: Connection timed out
[1741610788.287615] [ohm:3444048:0]        ib_iface.c:1059 UCX  ERROR ibv_create_cq(cqe=256) failed: Connection timed out
[1741610788.288404] [ohm:3444064:0]        ib_iface.c:1059 UCX  ERROR ibv_create_cq(cqe=256) failed: Connection timed out
[1741610788.302285] [ohm:3444088:0]        ib_iface.c:1059 UCX  ERROR ibv_create_cq(cqe=256) failed: Connection timed out
[1741610788.306170] [ohm:3444160:0]        ib_iface.c:1059 UCX  ERROR ibv_create_cq(cqe=256) failed: Connection timed out
[1741610788.306894] [ohm:3444100:0]        ib_iface.c:1059 UCX  ERROR ibv_create_cq(cqe=256) failed: Connection timed out
[1741610788.308983] [ohm:3444092:0]        ib_iface.c:1059 UCX  ERROR ibv_create_cq(cqe=256) failed: Connection timed out
[1741610788.312585] [ohm:3444121:0]        ib_iface.c:1059 UCX  ERROR ibv_create_cq(cqe=256) failed: Connection timed out
[1741610788.320256] [ohm:3444153:0]        ib_iface.c:1059 UCX  ERROR ibv_create_cq(cqe=256) failed: Connection timed out
[1741610788.323690] [ohm:3444149:0]        ib_iface.c:1059 UCX  ERROR ibv_create_cq(cqe=256) failed: Connection timed out
[1741610788.324108] [ohm:3444089:0]        ib_iface.c:1059 UCX  ERROR ibv_create_cq(cqe=256) failed: Connection timed out
[1741610788.325281] [ohm:3444108:0]        ib_iface.c:1059 UCX  ERROR ibv_create_cq(cqe=256) failed: Connection timed out
[1741610788.326280] [ohm:3444134:0]        ib_iface.c:1059 UCX  ERROR ibv_create_cq(cqe=256) failed: Connection timed out
[1741610788.332277] [ohm:3444095:0]        ib_iface.c:1059 UCX  ERROR ibv_create_cq(cqe=256) failed: Connection timed out
[1741610788.334003] [ohm:3444098:0]        ib_iface.c:1059 UCX  ERROR ibv_create_cq(cqe=256) failed: Connection timed out
[1741610788.346429] [ohm:3444112:0]        ib_iface.c:1059 UCX  ERROR ibv_create_cq(cqe=256) failed: Connection timed out
[1741610788.348342] [ohm:3444068:0]        ib_iface.c:1059 UCX  ERROR ibv_create_cq(cqe=256) failed: Connection timed out
[1741610788.353550] [ohm:3444105:0]        ib_iface.c:1059 UCX  ERROR ibv_create_cq(cqe=256) failed: Connection timed out
[1741610788.358480] [ohm:3444171:0]        ib_iface.c:1059 UCX  ERROR ibv_create_cq(cqe=256) failed: Connection timed out
[1741610788.360503] [ohm:3444123:0]        ib_iface.c:1059 UCX  ERROR ibv_create_cq(cqe=256) failed: Connection timed out
[1741610788.361994] [ohm:3444118:0]        ib_iface.c:1059 UCX  ERROR ibv_create_cq(cqe=256) failed: Connection timed out
[1741610788.367644] [ohm:3444146:0]        ib_iface.c:1059 UCX  ERROR ibv_create_cq(cqe=256) failed: Connection timed out
[1741610788.373305] [ohm:3444151:0]        ib_iface.c:1059 UCX  ERROR ibv_create_cq(cqe=256) failed: Connection timed out
[1741610788.375955] [ohm:3444085:0]        ib_iface.c:1059 UCX  ERROR ibv_create_cq(cqe=256) failed: Connection timed out
[1741610788.376554] [ohm:3444168:0]        ib_iface.c:1059 UCX  ERROR ibv_create_cq(cqe=256) failed: Connection timed out
[1741610788.376941] [ohm:3444183:0]        ib_iface.c:1059 UCX  ERROR ibv_create_cq(cqe=256) failed: Connection timed out
[1741610788.377923] [ohm:3444157:0]        ib_iface.c:1059 UCX  ERROR ibv_create_cq(cqe=256) failed: Connection timed out
[1741610788.381222] [ohm:3444180:0]        ib_iface.c:1059 UCX  ERROR ibv_create_cq(cqe=256) failed: Connection timed out
[1741610788.384138] [ohm:3444138:0]        ib_iface.c:1059 UCX  ERROR ibv_create_cq(cqe=256) failed: Connection timed out
[1741610788.384639] [ohm:3444126:0]        ib_iface.c:1059 UCX  ERROR ibv_create_cq(cqe=256) failed: Connection timed out
[1741610788.385795] [ohm:3444130:0]        ib_iface.c:1059 UCX  ERROR ibv_create_cq(cqe=256) failed: Connection timed out
[1741610788.386304] [ohm:3444184:0]        ib_iface.c:1059 UCX  ERROR ibv_create_cq(cqe=256) failed: Connection timed out
[1741610788.386409] [ohm:3444188:0]        ib_iface.c:1059 UCX  ERROR ibv_create_cq(cqe=256) failed: Connection timed out
[1741610788.387284] [ohm:3444174:0]        ib_iface.c:1059 UCX  ERROR ibv_create_cq(cqe=256) failed: Connection timed out


           ************************************************************
           *        Program running with 64 parallel MPI-processes    *
           *              working on a common directory               *
           ************************************************************
------------------------------------------------------------------------------
                             ORCA STARTUP CALCULATIONS
                           -- RI-GTO INTEGRALS CHOSEN --
------------------------------------------------------------------------------
------------------------------------------------------------------------------
                   ___                                                        
                  /   \      - P O W E R E D   B Y -                         
                 /     \                                                     
                 |  |  |   _    _      __       _____    __    __             
                 |  |  |  | |  | |    /  \     |  _  \  |  |  /  |          
                  \  \/   | |  | |   /    \    | | | |  |  | /  /          
                 / \  \   | |__| |  /  /\  \   | |_| |  |  |/  /          
                |  |  |   |  __  | /  /__\  \  |    /   |      \           
                |  |  |   | |  | | |   __   |  |    \   |  |\   \          
                \     /   | |  | | |  |  |  |  | |\  \  |  | \   \       
                 \___/    |_|  |_| |__|  |__|  |_| \__\ |__|  \__/        
                                                                              
                      - O R C A' S   B I G   F R I E N D -                    
                                      &                                       
                       - I N T E G R A L  F E E D E R -                       
                                                                              
 v1 FN, 2020, v2 2021, v3 2022-2024                                           
------------------------------------------------------------------------------


----------------------
SHARK INTEGRAL PACKAGE
----------------------

Number of atoms                             ...      7
Number of basis functions                   ...    182
Number of shells                            ...     68
Maximum angular momentum                    ...      3
Integral batch strategy                     ... SHARK/LIBINT Hybrid
RI-J (if used) integral strategy            ... SPLIT-RIJ (Revised 2003 algorithm where possible)
Printlevel                                  ...      1
Contraction scheme used                     ... SEGMENTED contraction
Prescreening option                         ... SCHWARTZ
   Thresh                                   ... 2.500e-11
   Tcut                                     ... 2.500e-12
   Tpresel                                  ... 2.500e-12 
Coulomb Range Separation                    ... NOT USED
Exchange Range Separation                   ... Long Range
   Mu parameter                             ... 3.000e-01
   Scaling (regular/separated)              ... 1.500e-01 8.500e-01
Multipole approximations                    ... NOT USED
Finite Nucleus Model                        ... NOT USED
CABS basis                                  ... NOT available
Auxiliary Coulomb fitting basis             ... AVAILABLE
   # of basis functions in Aux-J            ...    191
   # of shells in Aux-J                     ...     65
   Maximum angular momentum in Aux-J        ...      4
Auxiliary J/K fitting basis                 ... NOT available
Auxiliary Correlation fitting basis         ... NOT available
Auxiliary 'external' fitting basis          ... NOT available

Checking pre-screening integrals            ... done (  0.0 sec) Dimension = 68
Check shell pair data                       ... done (  0.0 sec)
Shell pair information
Shell pair cut-off parameter TPreSel        ...   2.5e-12
Total number of shell pairs                 ...      2346
Shell pairs after pre-screening             ...      2329
Total number of primitive shell pairs       ...      5434
Primitive shell pairs kept                  ...      4819
          la=0 lb=0:    456 shell pairs
          la=1 lb=0:    655 shell pairs
          la=1 lb=1:    253 shell pairs
          la=2 lb=0:    387 shell pairs
          la=2 lb=1:    286 shell pairs
          la=2 lb=2:     91 shell pairs
          la=3 lb=0:     90 shell pairs
          la=3 lb=1:     66 shell pairs
          la=3 lb=2:     39 shell pairs
          la=3 lb=3:      6 shell pairs

Calculating one electron integrals          ... done (  0.0 sec)
Calculating RI/J V-Matrix + Cholesky decomp.... done (  0.0 sec)
Calculating Nuclear repulsion               ... done (  0.0 sec) ENN=     67.860483878284 Eh

Diagonalization of the overlap matrix:
Smallest eigenvalue                        ... 1.782e-05
Time for diagonalization                   ...    0.004 sec
Threshold for overlap eigenvalues          ... 1.000e-07
Number of eigenvalues below threshold      ... 0
Time for construction of square roots      ...    0.003 sec
Total time needed                          ...    0.009 sec

-------------------
DFT GRID GENERATION
-------------------

General Integration Accuracy     IntAcc      ... 4.388
Radial Grid Type                 RadialGrid  ... OptM3 with GC (2021)
Angular Grid (max. ang.)         AngularGrid ... 4 (Lebedev-302)
Angular grid pruning method      GridPruning ... 4 (adaptive)
Weight generation scheme         WeightScheme... mBecke (2022)
Basis function cutoff            BFCut       ... 1.0000e-11
Integration weight cutoff        WCut        ... 1.0000e-14
Partially contracted basis set               ... off
Rotationally invariant grid construction     ... off
Angular grids for H and He will be reduced by one unit
Diffuse basis detected: some atoms will have their outermost
                        angular grid increased by 1.

Total number of grid points                  ...    33166
Total number of batches                      ...      523
Average number of points per batch           ...       63
Average number of grid points per atom       ...     4738

--------------------
COSX GRID GENERATION
--------------------

GRIDX 1
-------
General Integration Accuracy     IntAcc      ... 3.816
Radial Grid Type                 RadialGrid  ... OptM3 with GC (2021)
Angular Grid (max. ang.)         AngularGrid ... 1 (Lebedev-50)
Angular grid pruning method      GridPruning ... 4 (adaptive)
Weight generation scheme         WeightScheme... mBecke (2022)
Basis function cutoff            BFCut       ... 1.0000e-11
Integration weight cutoff        WCut        ... 1.0000e-14
Partially contracted basis set               ... on
Rotationally invariant grid construction     ... off
Angular grids for H and He will be reduced by one unit
Diffuse basis detected: some atoms will have their outermost
                        angular grid increased by 1.

Total number of grid points                  ...     4159
Total number of batches                      ...       37
Average number of points per batch           ...      112
Average number of grid points per atom       ...      594
UseSFitting                                  ... on

GRIDX 2
-------
General Integration Accuracy     IntAcc      ... 4.020
Radial Grid Type                 RadialGrid  ... OptM3 with GC (2021)
Angular Grid (max. ang.)         AngularGrid ... 2 (Lebedev-110)
Angular grid pruning method      GridPruning ... 4 (adaptive)
Weight generation scheme         WeightScheme... mBecke (2022)
Basis function cutoff            BFCut       ... 1.0000e-11
Integration weight cutoff        WCut        ... 1.0000e-14
Partially contracted basis set               ... on
Rotationally invariant grid construction     ... off
Angular grids for H and He will be reduced by one unit
Diffuse basis detected: some atoms will have their outermost
                        angular grid increased by 1.

Total number of grid points                  ...    10298
Total number of batches                      ...       83
Average number of points per batch           ...      124
Average number of grid points per atom       ...     1471
UseSFitting                                  ... on

GRIDX 3
-------
General Integration Accuracy     IntAcc      ... 4.338
Radial Grid Type                 RadialGrid  ... OptM3 with GC (2021)
Angular Grid (max. ang.)         AngularGrid ... 3 (Lebedev-194)
Angular grid pruning method      GridPruning ... 4 (adaptive)
Weight generation scheme         WeightScheme... mBecke (2022)
Basis function cutoff            BFCut       ... 1.0000e-11
Integration weight cutoff        WCut        ... 1.0000e-14
Partially contracted basis set               ... on
Rotationally invariant grid construction     ... off
Angular grids for H and He will be reduced by one unit
Diffuse basis detected: some atoms will have their outermost
                        angular grid increased by 1.

Total number of grid points                  ...    23170
Total number of batches                      ...      184
Average number of points per batch           ...      125
Average number of grid points per atom       ...     3310
UseSFitting                                  ... on
Initializing property integral containers    ... done (  0.0 sec)

SHARK setup successfully completed in   0.5 seconds

Maximum memory used throughout the entire STARTUP-calculation: 13.8 MB
[1741610790.504697] [ohm:3444398:0]        ib_iface.c:1059 UCX  ERROR ibv_create_cq(cqe=256) failed: Connection timed out
[1741610790.536842] [ohm:3444396:0]        ib_iface.c:1059 UCX  ERROR ibv_create_cq(cqe=256) failed: Connection timed out
[1741610790.539703] [ohm:3444404:0]        ib_iface.c:1059 UCX  ERROR ibv_create_cq(cqe=256) failed: Connection timed out
[1741610790.541500] [ohm:3444409:0]        ib_iface.c:1059 UCX  ERROR ibv_create_cq(cqe=256) failed: Connection timed out
[1741610790.558841] [ohm:3444408:0]        ib_iface.c:1059 UCX  ERROR ibv_create_cq(cqe=256) failed: Connection timed out
[1741610790.563695] [ohm:3444538:0]        ib_iface.c:1059 UCX  ERROR ibv_create_cq(cqe=256) failed: Connection timed out
[1741610790.566146] [ohm:3444397:0]        ib_iface.c:1059 UCX  ERROR ibv_create_cq(cqe=256) failed: Connection timed out
[1741610790.567584] [ohm:3444407:0]        ib_iface.c:1059 UCX  ERROR ibv_create_cq(cqe=256) failed: Connection timed out
[1741610790.567803] [ohm:3444451:0]        ib_iface.c:1059 UCX  ERROR ibv_create_cq(cqe=256) failed: Connection timed out
[1741610790.571328] [ohm:3444449:0]        ib_iface.c:1059 UCX  ERROR ibv_create_cq(cqe=256) failed: Connection timed out
[1741610790.579986] [ohm:3444405:0]        ib_iface.c:1059 UCX  ERROR ibv_create_cq(cqe=256) failed: Connection timed out
[1741610790.596004] [ohm:3444402:0]        ib_iface.c:1059 UCX  ERROR ibv_create_cq(cqe=256) failed: Connection timed out
[1741610790.600903] [ohm:3444437:0]        ib_iface.c:1059 UCX  ERROR ibv_create_cq(cqe=256) failed: Connection timed out
[1741610790.603159] [ohm:3444483:0]        ib_iface.c:1059 UCX  ERROR ibv_create_cq(cqe=256) failed: Connection timed out
[1741610790.607702] [ohm:3444401:0]        ib_iface.c:1059 UCX  ERROR ibv_create_cq(cqe=256) failed: Connection timed out
[1741610790.615729] [ohm:3444542:0]        ib_iface.c:1059 UCX  ERROR ibv_create_cq(cqe=256) failed: Connection timed out
[1741610790.642039] [ohm:3444400:0]        ib_iface.c:1059 UCX  ERROR ibv_create_cq(cqe=256) failed: Connection timed out
[1741610790.654719] [ohm:3444500:0]        ib_iface.c:1059 UCX  ERROR ibv_create_cq(cqe=256) failed: Connection timed out
[1741610790.658669] [ohm:3444406:0]        ib_iface.c:1059 UCX  ERROR ibv_create_cq(cqe=256) failed: Connection timed out
[1741610790.663470] [ohm:3444433:0]        ib_iface.c:1059 UCX  ERROR ibv_create_cq(cqe=256) failed: Connection timed out
[1741610790.663718] [ohm:3444442:0]        ib_iface.c:1059 UCX  ERROR ibv_create_cq(cqe=256) failed: Connection timed out
[1741610790.664579] [ohm:3444472:0]        ib_iface.c:1059 UCX  ERROR ibv_create_cq(cqe=256) failed: Connection timed out
[1741610790.669687] [ohm:3444428:0]        ib_iface.c:1059 UCX  ERROR ibv_create_cq(cqe=256) failed: Connection timed out
[1741610790.670368] [ohm:3444518:0]        ib_iface.c:1059 UCX  ERROR ibv_create_cq(cqe=256) failed: Connection timed out
[1741610790.679425] [ohm:3444457:0]        ib_iface.c:1059 UCX  ERROR ibv_create_cq(cqe=256) failed: Connection timed out
[1741610790.687004] [ohm:3444429:0]        ib_iface.c:1059 UCX  ERROR ibv_create_cq(cqe=256) failed: Connection timed out
[1741610790.688750] [ohm:3444456:0]        ib_iface.c:1059 UCX  ERROR ibv_create_cq(cqe=256) failed: Connection timed out
[1741610790.700502] [ohm:3444399:0]        ib_iface.c:1059 UCX  ERROR ibv_create_cq(cqe=256) failed: Connection timed out
[1741610790.706591] [ohm:3444410:0]        ib_iface.c:1059 UCX  ERROR ibv_create_cq(cqe=256) failed: Connection timed out
[1741610790.716478] [ohm:3444459:0]        ib_iface.c:1059 UCX  ERROR ibv_create_cq(cqe=256) failed: Connection timed out
[1741610790.722362] [ohm:3444498:0]        ib_iface.c:1059 UCX  ERROR ibv_create_cq(cqe=256) failed: Connection timed out
[1741610790.726239] [ohm:3444452:0]        ib_iface.c:1059 UCX  ERROR ibv_create_cq(cqe=256) failed: Connection timed out
[1741610790.739481] [ohm:3444455:0]        ib_iface.c:1059 UCX  ERROR ibv_create_cq(cqe=256) failed: Connection timed out
[1741610790.747738] [ohm:3444463:0]        ib_iface.c:1059 UCX  ERROR ibv_create_cq(cqe=256) failed: Connection timed out
[1741610790.765146] [ohm:3444470:0]        ib_iface.c:1059 UCX  ERROR ibv_create_cq(cqe=256) failed: Connection timed out
[1741610790.768882] [ohm:3444453:0]        ib_iface.c:1059 UCX  ERROR ibv_create_cq(cqe=256) failed: Connection timed out
[1741610790.774705] [ohm:3444509:0]        ib_iface.c:1059 UCX  ERROR ibv_create_cq(cqe=256) failed: Connection timed out
[1741610790.778644] [ohm:3444477:0]        ib_iface.c:1059 UCX  ERROR ibv_create_cq(cqe=256) failed: Connection timed out
[1741610790.787369] [ohm:3444540:0]        ib_iface.c:1059 UCX  ERROR ibv_create_cq(cqe=256) failed: Connection timed out
[1741610790.793519] [ohm:3444465:0]        ib_iface.c:1059 UCX  ERROR ibv_create_cq(cqe=256) failed: Connection timed out
[1741610790.794623] [ohm:3444523:0]        ib_iface.c:1059 UCX  ERROR ibv_create_cq(cqe=256) failed: Connection timed out
[1741610790.795375] [ohm:3444441:0]        ib_iface.c:1059 UCX  ERROR ibv_create_cq(cqe=256) failed: Connection timed out
[1741610790.799035] [ohm:3444476:0]        ib_iface.c:1059 UCX  ERROR ibv_create_cq(cqe=256) failed: Connection timed out
[1741610790.801225] [ohm:3444461:0]        ib_iface.c:1059 UCX  ERROR ibv_create_cq(cqe=256) failed: Connection timed out
[1741610790.802591] [ohm:3444504:0]        ib_iface.c:1059 UCX  ERROR ibv_create_cq(cqe=256) failed: Connection timed out
[1741610790.808624] [ohm:3444529:0]        ib_iface.c:1059 UCX  ERROR ibv_create_cq(cqe=256) failed: Connection timed out
[1741610790.810342] [ohm:3444506:0]        ib_iface.c:1059 UCX  ERROR ibv_create_cq(cqe=256) failed: Connection timed out
[1741610790.813165] [ohm:3444454:0]        ib_iface.c:1059 UCX  ERROR ibv_create_cq(cqe=256) failed: Connection timed out
[1741610790.815241] [ohm:3444468:0]        ib_iface.c:1059 UCX  ERROR ibv_create_cq(cqe=256) failed: Connection timed out
[1741610790.823674] [ohm:3444445:0]        ib_iface.c:1059 UCX  ERROR ibv_create_cq(cqe=256) failed: Connection timed out
[1741610790.824301] [ohm:3444533:0]        ib_iface.c:1059 UCX  ERROR ibv_create_cq(cqe=256) failed: Connection timed out
[1741610790.831591] [ohm:3444493:0]        ib_iface.c:1059 UCX  ERROR ibv_create_cq(cqe=256) failed: Connection timed out
[1741610790.833888] [ohm:3444511:0]        ib_iface.c:1059 UCX  ERROR ibv_create_cq(cqe=256) failed: Connection timed out
[1741610790.838128] [ohm:3444403:0]        ib_iface.c:1059 UCX  ERROR ibv_create_cq(cqe=256) failed: Connection timed out
[1741610790.841327] [ohm:3444458:0]        ib_iface.c:1059 UCX  ERROR ibv_create_cq(cqe=256) failed: Connection timed out
[1741610790.843236] [ohm:3444532:0]        ib_iface.c:1059 UCX  ERROR ibv_create_cq(cqe=256) failed: Connection timed out
[1741610790.843334] [ohm:3444460:0]        ib_iface.c:1059 UCX  ERROR ibv_create_cq(cqe=256) failed: Connection timed out
[1741610790.845283] [ohm:3444447:0]        ib_iface.c:1059 UCX  ERROR ibv_create_cq(cqe=256) failed: Connection timed out
[1741610790.846098] [ohm:3444462:0]        ib_iface.c:1059 UCX  ERROR ibv_create_cq(cqe=256) failed: Connection timed out
[1741610790.847131] [ohm:3444464:0]        ib_iface.c:1059 UCX  ERROR ibv_create_cq(cqe=256) failed: Connection timed out
[1741610790.847859] [ohm:3444516:0]        ib_iface.c:1059 UCX  ERROR ibv_create_cq(cqe=256) failed: Connection timed out
[1741610790.848272] [ohm:3444525:0]        ib_iface.c:1059 UCX  ERROR ibv_create_cq(cqe=256) failed: Connection timed out
[1741610790.849680] [ohm:3444489:0]        ib_iface.c:1059 UCX  ERROR ibv_create_cq(cqe=256) failed: Connection timed out
[1741610790.851159] [ohm:3444448:0]        ib_iface.c:1059 UCX  ERROR ibv_create_cq(cqe=256) failed: Connection timed out


           ************************************************************
           *        Program running with 64 parallel MPI-processes    *
           *              working on a common directory               *
           ************************************************************
-------------------------------------------------------------------------------
                                 ORCA GUESS
                   Start orbitals & Density for SCF / CASSCF
-------------------------------------------------------------------------------

------------
SCF SETTINGS
------------
Hamiltonian:
 Density Functional     Method          .... DFT(GTOs)
  Functional kind                       .... Exchange-Correlation
  Functional name                       .... wB97M-V exchange-correlation functional
  Functional family                     .... Hybrid MGGA
  Functional refs                              
    [ 0] N. Mardirossian and M. Head-Gordon.,  J. Chem. Phys. 144, 214110 (2016), doi: 10.1063/1.4952647
  Fraction of HF Exchange (short range) .... 0.1500
  Fraction of HF Exchange (long range)  .... 1.0000
  Range separation parameter mu         .... 0.3000
  Functional external parameters        .... 17
    Parameter  0 _cx00      =  8.500000e-01 : u^00 coefficient for exchange
    Parameter  1 _cx01      =  1.007000e+00 : u^01 coefficient for exchange
    Parameter  2 _cx10      =  2.590000e-01 : u^10 coefficient for exchange
    Parameter  3 _css00     =  4.430000e-01 : u^00 coefficient for same-spin correlation
    Parameter  4 _css04     = -1.437000e+00 : u^04 coefficient for same-spin correlation
    Parameter  5 _css10     = -4.535000e+00 : u^10 coefficient for same-spin correlation
    Parameter  6 _css20     = -3.390000e+00 : u^20 coefficient for same-spin correlation
    Parameter  7 _css43     =  4.278000e+00 : u^43 coefficient for same-spin correlation
    Parameter  8 _cos00     =  1.000000e+00 : u^00 coefficient for opposite-spin correlation
    Parameter  9 _cos10     =  1.358000e+00 : u^10 coefficient for opposite-spin correlation
    Parameter 10 _cos20     =  2.924000e+00 : u^20 coefficient for opposite-spin correlation
    Parameter 11 _cos21     = -8.812000e+00 : u^21 coefficient for opposite-spin correlation
    Parameter 12 _cos60     = -1.390000e+00 : u^60 coefficient for opposite-spin correlation
    Parameter 13 _cos61     =  9.142000e+00 : u^61 coefficient for opposite-spin correlation
    Parameter 14 _alpha     =  1.000000e+00 : fraction of HF exchange
    Parameter 15 _beta      = -8.500000e-01 : fraction of short-range exchange
    Parameter 16 _omega     =  3.000000e-01 : range-separation constant
 Long-range corrected/Screened/Range-Separated Hybrid DFT is turned on
   Amount of maximum screened exact exchange              ....  0.850000
   Range separation parameter mu (erf(mu*r12)/r12)        ....  0.300000
 RI-approximation to the Coulomb term is turned on
   Number of AuxJ basis functions       .... 191
   RIJ-COSX (HFX calculated with COS-X)).... on


General Settings:
 Integral files         IntName         .... orca
 Hartree-Fock type      HFTyp           .... UHF
 Total Charge           Charge          ....    0
 Multiplicity           Mult            ....    3
 Number of Electrons    NEL             ....   24
 Basis Dimension        Dim             ....  182
 Nuclear Repulsion      ENuc            ....     67.8604838783 Eh

Convergence Acceleration:
 AO-DIIS                CNVDIIS         .... on
   Start iteration      DIISMaxIt       ....    12
   Startup error        DIISStart       ....  0.200000
   # of expansion vecs  DIISMaxEq       ....     5
   Bias factor          DIISBfac        ....   1.050
   Max. coefficient     DIISMaxC        ....  10.000
 MO-DIIS                CNVKDIIS        .... off
 Trust-Rad. Augm. Hess. CNVTRAH         .... auto
   Auto Start mean grad. ratio tolernc. ....  1.125000
   Auto Start start iteration           ....    50
   Auto Start num. interpolation iter.  ....    10
   Max. Number of Micro iterations      ....    24
   Max. Number of Macro iterations      .... Maxiter - #DIIS iter
   Number of Davidson start vectors     ....     2
   Converg. threshold    (grad. norm)   ....   1.000e-05
   Grad. Scal. Fac. for Micro threshold ....   0.100
   Minimum threshold for Micro iter.    ....   1.000e-02
   NR start threshold (gradient norm)   ....   1.000e-04
   Initial trust radius                 ....   0.400
   Minimum AH scaling param. (alpha)    ....   1.000
   Maximum AH scaling param. (alpha)    .... 1000.000
   Quad. conv. algorithm                .... NR
   White noise on init. David. guess    .... on
   Maximum white noise                  ....   0.010
   Pseudo random numbers                .... off
   Inactive MOs                         .... canonical
   Orbital update algorithm             .... Taylor
   Preconditioner                       .... Diag
   Full preconditioner red. dimension   ....   250
 SOSCF                  CNVSOSCF        .... on
   Start iteration      SOSCFMaxIt      ....   150
   Startup grad/error   SOSCFStart      ....  0.003300
   Hessian update       SOSCFHessUp     .... L-BFGS
 Level Shifting         CNVShift        .... on
   Level shift para.    LevelShift      ....    0.2500
   Turn off err/grad.   ShiftErr        ....    0.0010
 Zerner damping         CNVZerner       .... off
 Static damping         CNVDamp         .... on
   Fraction old density DampFac         ....    0.7000
   Max. Damping (<1)    DampMax         ....    0.9800
   Min. Damping (>=0)   DampMin         ....    0.0000
   Turn off err/grad.   DampErr         ....    0.1000

SCF Procedure:
 Maximum # iterations   MaxIter         ....   125
 SCF integral mode      SCFMode         .... Direct
   Integral package                     .... SHARK and LIBINT hybrid scheme
 Reset frequency        DirectResetFreq ....    20
 Integral Threshold     Thresh          ....  2.500e-11 Eh
 Primitive CutOff       TCut            ....  2.500e-12 Eh

Convergence Tolerance:
 Convergence Check Mode ConvCheckMode   .... Total+1el-Energy
 Convergence forced     ConvForced      .... 1
 Energy Change          TolE            ....  1.000e-08 Eh
 1-El. energy change                    ....  1.000e-05 Eh
 Orbital Gradient       TolG            ....  1.000e-05
 Orbital Rotation angle TolX            ....  1.000e-05
 DIIS Error             TolErr          ....  5.000e-07

------------------------------
INITIAL GUESS: MODEL POTENTIAL
------------------------------
Loading Hartree-Fock densities                     ... done
Calculating cut-offs                               ... done
Initializing the effective Hamiltonian             ... done
Setting up the integral package (SHARK)            ... done
Starting the Coulomb interaction                   ... done (   0.0 sec)
Making the grid                                    ... done (   0.0 sec)
Mapping shells                                     ... done
Starting the XC term evaluation                    ... done (   0.0 sec)
  promolecular density results
     # of electrons  =     23.998608842
     EX              =    -19.456059576
     EC              =     -0.764956565
     EX+EC           =    -20.221016141
Transforming the Hamiltonian                       ... done (   0.0 sec)
Diagonalizing the Hamiltonian                      ... done (   0.0 sec)
Back transforming the eigenvectors                 ... done (   0.0 sec)
Now organizing SCF variables                       ... done
                      ------------------
                      INITIAL GUESS DONE (   0.1 sec)
                      ------------------
             **** ENERGY FILE WAS UPDATED (orca.en.tmp) ****
Finished Guess after   1.7 sec
Maximum memory used throughout the entire GUESS-calculation: 9.5 MB
[1741610792.715747] [ohm:3444741:0]        ib_iface.c:1059 UCX  ERROR ibv_create_cq(cqe=256) failed: Connection timed out
[1741610792.729486] [ohm:3444739:0]        ib_iface.c:1059 UCX  ERROR ibv_create_cq(cqe=256) failed: Connection timed out
[1741610792.740056] [ohm:3444743:0]        ib_iface.c:1059 UCX  ERROR ibv_create_cq(cqe=256) failed: Connection timed out
[1741610792.745217] [ohm:3444744:0]        ib_iface.c:1059 UCX  ERROR ibv_create_cq(cqe=256) failed: Connection timed out
[1741610792.745251] [ohm:3444748:0]        ib_iface.c:1059 UCX  ERROR ibv_create_cq(cqe=256) failed: Connection timed out
[1741610792.758474] [ohm:3444838:0]        ib_iface.c:1059 UCX  ERROR ibv_create_cq(cqe=256) failed: Connection timed out
[1741610792.767996] [ohm:3444798:0]        ib_iface.c:1059 UCX  ERROR ibv_create_cq(cqe=256) failed: Connection timed out
[1741610792.769317] [ohm:3444856:0]        ib_iface.c:1059 UCX  ERROR ibv_create_cq(cqe=256) failed: Connection timed out
[1741610792.792208] [ohm:3444751:0]        ib_iface.c:1059 UCX  ERROR ibv_create_cq(cqe=256) failed: Connection timed out
[1741610792.793688] [ohm:3444811:0]        ib_iface.c:1059 UCX  ERROR ibv_create_cq(cqe=256) failed: Connection timed out
[1741610792.797604] [ohm:3444753:0]        ib_iface.c:1059 UCX  ERROR ibv_create_cq(cqe=256) failed: Connection timed out
[1741610792.806260] [ohm:3444855:0]        ib_iface.c:1059 UCX  ERROR ibv_create_cq(cqe=256) failed: Connection timed out
[1741610792.831356] [ohm:3444886:0]        ib_iface.c:1059 UCX  ERROR ibv_create_cq(cqe=256) failed: Connection timed out
[1741610792.847595] [ohm:3444791:0]        ib_iface.c:1059 UCX  ERROR ibv_create_cq(cqe=256) failed: Connection timed out
[1741610792.849706] [ohm:3444807:0]        ib_iface.c:1059 UCX  ERROR ibv_create_cq(cqe=256) failed: Connection timed out
[1741610792.850551] [ohm:3444830:0]        ib_iface.c:1059 UCX  ERROR ibv_create_cq(cqe=256) failed: Connection timed out
[1741610792.852915] [ohm:3444794:0]        ib_iface.c:1059 UCX  ERROR ibv_create_cq(cqe=256) failed: Connection timed out
[1741610792.860731] [ohm:3444795:0]        ib_iface.c:1059 UCX  ERROR ibv_create_cq(cqe=256) failed: Connection timed out
[1741610792.876506] [ohm:3444802:0]        ib_iface.c:1059 UCX  ERROR ibv_create_cq(cqe=256) failed: Connection timed out
[1741610792.876720] [ohm:3444843:0]        ib_iface.c:1059 UCX  ERROR ibv_create_cq(cqe=256) failed: Connection timed out
[1741610792.883474] [ohm:3444745:0]        ib_iface.c:1059 UCX  ERROR ibv_create_cq(cqe=256) failed: Connection timed out
[1741610792.890467] [ohm:3444801:0]        ib_iface.c:1059 UCX  ERROR ibv_create_cq(cqe=256) failed: Connection timed out
[1741610792.893057] [ohm:3444800:0]        ib_iface.c:1059 UCX  ERROR ibv_create_cq(cqe=256) failed: Connection timed out
[1741610792.911114] [ohm:3444797:0]        ib_iface.c:1059 UCX  ERROR ibv_create_cq(cqe=256) failed: Connection timed out
[1741610792.912566] [ohm:3444884:0]        ib_iface.c:1059 UCX  ERROR ibv_create_cq(cqe=256) failed: Connection timed out
[1741610792.915916] [ohm:3444784:0]        ib_iface.c:1059 UCX  ERROR ibv_create_cq(cqe=256) failed: Connection timed out
[1741610792.916002] [ohm:3444879:0]        ib_iface.c:1059 UCX  ERROR ibv_create_cq(cqe=256) failed: Connection timed out
[1741610792.917997] [ohm:3444776:0]        ib_iface.c:1059 UCX  ERROR ibv_create_cq(cqe=256) failed: Connection timed out
[1741610792.949525] [ohm:3444806:0]        ib_iface.c:1059 UCX  ERROR ibv_create_cq(cqe=256) failed: Connection timed out
[1741610792.950168] [ohm:3444804:0]        ib_iface.c:1059 UCX  ERROR ibv_create_cq(cqe=256) failed: Connection timed out
[1741610792.952756] [ohm:3444799:0]        ib_iface.c:1059 UCX  ERROR ibv_create_cq(cqe=256) failed: Connection timed out
[1741610792.965894] [ohm:3444844:0]        ib_iface.c:1059 UCX  ERROR ibv_create_cq(cqe=256) failed: Connection timed out
[1741610792.994909] [ohm:3444809:0]        ib_iface.c:1059 UCX  ERROR ibv_create_cq(cqe=256) failed: Connection timed out
[1741610792.995704] [ohm:3444863:0]        ib_iface.c:1059 UCX  ERROR ibv_create_cq(cqe=256) failed: Connection timed out
[1741610792.996322] [ohm:3444747:0]        ib_iface.c:1059 UCX  ERROR ibv_create_cq(cqe=256) failed: Connection timed out
[1741610792.998156] [ohm:3444805:0]        ib_iface.c:1059 UCX  ERROR ibv_create_cq(cqe=256) failed: Connection timed out
[1741610793.000270] [ohm:3444749:0]        ib_iface.c:1059 UCX  ERROR ibv_create_cq(cqe=256) failed: Connection timed out
[1741610793.000270] [ohm:3444831:0]        ib_iface.c:1059 UCX  ERROR ibv_create_cq(cqe=256) failed: Connection timed out
[1741610793.000586] [ohm:3444877:0]        ib_iface.c:1059 UCX  ERROR ibv_create_cq(cqe=256) failed: Connection timed out
[1741610793.009541] [ohm:3444852:0]        ib_iface.c:1059 UCX  ERROR ibv_create_cq(cqe=256) failed: Connection timed out
[1741610793.011054] [ohm:3444755:0]        ib_iface.c:1059 UCX  ERROR ibv_create_cq(cqe=256) failed: Connection timed out
[1741610793.011266] [ohm:3444803:0]        ib_iface.c:1059 UCX  ERROR ibv_create_cq(cqe=256) failed: Connection timed out
[1741610793.011350] [ohm:3444742:0]        ib_iface.c:1059 UCX  ERROR ibv_create_cq(cqe=256) failed: Connection timed out
[1741610793.011648] [ohm:3444808:0]        ib_iface.c:1059 UCX  ERROR ibv_create_cq(cqe=256) failed: Connection timed out
[1741610793.012872] [ohm:3444815:0]        ib_iface.c:1059 UCX  ERROR ibv_create_cq(cqe=256) failed: Connection timed out
[1741610793.013904] [ohm:3444792:0]        ib_iface.c:1059 UCX  ERROR ibv_create_cq(cqe=256) failed: Connection timed out
[1741610793.018210] [ohm:3444867:0]        ib_iface.c:1059 UCX  ERROR ibv_create_cq(cqe=256) failed: Connection timed out
[1741610793.018541] [ohm:3444869:0]        ib_iface.c:1059 UCX  ERROR ibv_create_cq(cqe=256) failed: Connection timed out
[1741610793.025465] [ohm:3444872:0]        ib_iface.c:1059 UCX  ERROR ibv_create_cq(cqe=256) failed: Connection timed out
[1741610793.027232] [ohm:3444816:0]        ib_iface.c:1059 UCX  ERROR ibv_create_cq(cqe=256) failed: Connection timed out
[1741610793.029215] [ohm:3444850:0]        ib_iface.c:1059 UCX  ERROR ibv_create_cq(cqe=256) failed: Connection timed out
[1741610793.029986] [ohm:3444823:0]        ib_iface.c:1059 UCX  ERROR ibv_create_cq(cqe=256) failed: Connection timed out
[1741610793.032186] [ohm:3444796:0]        ib_iface.c:1059 UCX  ERROR ibv_create_cq(cqe=256) failed: Connection timed out
[1741610793.033486] [ohm:3444750:0]        ib_iface.c:1059 UCX  ERROR ibv_create_cq(cqe=256) failed: Connection timed out
[1741610793.034319] [ohm:3444740:0]        ib_iface.c:1059 UCX  ERROR ibv_create_cq(cqe=256) failed: Connection timed out
[1741610793.038195] [ohm:3444822:0]        ib_iface.c:1059 UCX  ERROR ibv_create_cq(cqe=256) failed: Connection timed out
[1741610793.038986] [ohm:3444757:0]        ib_iface.c:1059 UCX  ERROR ibv_create_cq(cqe=256) failed: Connection timed out
[1741610793.039181] [ohm:3444837:0]        ib_iface.c:1059 UCX  ERROR ibv_create_cq(cqe=256) failed: Connection timed out
[1741610793.039909] [ohm:3444793:0]        ib_iface.c:1059 UCX  ERROR ibv_create_cq(cqe=256) failed: Connection timed out
[1741610793.039915] [ohm:3444819:0]        ib_iface.c:1059 UCX  ERROR ibv_create_cq(cqe=256) failed: Connection timed out
[1741610793.042415] [ohm:3444782:0]        ib_iface.c:1059 UCX  ERROR ibv_create_cq(cqe=256) failed: Connection timed out
[1741610793.043383] [ohm:3444746:0]        ib_iface.c:1059 UCX  ERROR ibv_create_cq(cqe=256) failed: Connection timed out
[1741610793.045568] [ohm:3444861:0]        ib_iface.c:1059 UCX  ERROR ibv_create_cq(cqe=256) failed: Connection timed out
[1741610793.046043] [ohm:3444788:0]        ib_iface.c:1059 UCX  ERROR ibv_create_cq(cqe=256) failed: Connection timed out


           ************************************************************
           *        Program running with 64 parallel MPI-processes    *
           *              working on a common directory               *
           ************************************************************

-------------------------------------------------------------------------------------------
                                      ORCA LEAN-SCF
                              memory conserving SCF solver
-------------------------------------------------------------------------------------------

----------------------------------------D-I-I-S--------------------------------------------
Iteration    Energy (Eh)           Delta-E    RMSDP     MaxDP     DIISErr   Damp  Time(sec)
-------------------------------------------------------------------------------------------
               ***  Starting incremental Fock matrix formation  ***
    1    -153.7038674263719145     0.00e+00  8.76e-04  2.32e-02  7.67e-02  0.700   0.3
    2    -153.7314947790158897    -2.76e-02  7.72e-04  1.96e-02  4.11e-02  0.700   0.3
                               ***Turning on AO-DIIS***
    3    -153.7466953222217398    -1.52e-02  6.33e-04  2.04e-02  2.31e-02  0.700   0.3
    4    -153.7562039248655594    -9.51e-03  1.60e-03  5.47e-02  1.90e-02  0.000   0.3
    5    -153.7789615975491699    -2.28e-02  1.71e-04  6.51e-03  6.66e-03  0.000   0.3
    6    -153.7796509090853760    -6.89e-04  1.13e-04  3.23e-03  3.42e-03  0.000   0.3
                              *** Initializing SOSCF ***
---------------------------------------S-O-S-C-F--------------------------------------
Iteration    Energy (Eh)           Delta-E    RMSDP     MaxDP     MaxGrad    Time(sec)
--------------------------------------------------------------------------------------
    7    -153.7799901533598188    -3.39e-04  6.49e-05  1.39e-03  2.85e-03     0.3
               *** Restarting incremental Fock matrix formation ***
    8    -153.7801464806212550    -1.56e-04  2.92e-05  8.17e-04  2.29e-03     0.3
    9    -153.7801903223366935    -4.38e-05  4.83e-05  9.33e-04  1.20e-03     0.3
   10    -153.7802177851854140    -2.75e-05  1.37e-05  3.98e-04  6.19e-04     0.3
   11    -153.7802213651302452    -3.58e-06  4.97e-05  1.78e-03  5.91e-04     0.3
   12    -153.7802333544032649    -1.20e-05  1.04e-04  4.11e-03  5.01e-04     0.3
   13    -153.7802534847070604    -2.01e-05  1.09e-04  4.39e-03  7.25e-04     0.3
   14    -153.7802702926169047    -1.68e-05  8.66e-05  3.20e-03  5.81e-04     0.3
   15    -153.7802811234321041    -1.08e-05  2.35e-05  6.87e-04  4.27e-04     0.3
   16    -153.7802843925115326    -3.27e-06  8.35e-06  2.69e-04  2.70e-04     0.3
   17    -153.7802849839819714    -5.91e-07  3.67e-06  9.42e-05  1.10e-04     0.3
   18    -153.7802851202293652    -1.36e-07  2.14e-06  6.46e-05  2.90e-05     0.3
   19    -153.7802851442065162    -2.40e-08  1.06e-06  3.98e-05  1.42e-05     0.3
   20    -153.7802851498124141    -5.61e-09  3.60e-07  1.06e-05  5.42e-06     0.3
                 **** Energy Check signals convergence ****

               *****************************************************
               *                     SUCCESS                       *
               *           SCF CONVERGED AFTER  20 CYCLES          *
               *****************************************************

Recomputing exchange energy using gridx3       ... done (    0.179 sec)
Old exchange energy                            :     -6.192971885 Eh
New exchange energy                            :     -6.192960018 Eh
Exchange energy change after final integration :      0.000011868 Eh
Total energy after final integration           :   -153.780273282 Eh
             **** ENERGY FILE WAS UPDATED (orca.en.tmp) ****

----------------
TOTAL SCF ENERGY
----------------

Total Energy       :       -153.78027328222558 Eh           -4184.57398 eV

Components:
Nuclear Repulsion  :         67.86048387828413 Eh            1846.57764 eV
Electronic Energy  :       -221.64076902809654 Eh           -6031.15194 eV
One Electron Energy:       -342.28251037892778 Eh           -9313.98062 eV
Two Electron Energy:        120.64174135083124 Eh            3282.82868 eV

Virial components:
Potential Energy   :       -307.02033760698146 Eh           -8354.44812 eV
Kinetic Energy     :        153.24006432475591 Eh            4169.87414 eV
Virial Ratio       :          2.00352524621971

DFT components:
N(Alpha)           :       12.999993988087 electrons
N(Beta)            :       10.999985848772 electrons
N(Total)           :       23.999979836859 electrons
E(XC)              :      -14.683462772434 Eh       

---------------
SCF CONVERGENCE
---------------

  Last Energy change         ...    5.6059e-09  Tolerance :   1.0000e-08
  Last MAX-Density change    ...    1.0608e-05  Tolerance :   1.0000e-07
  Last RMS-Density change    ...    3.6046e-07  Tolerance :   5.0000e-09
  Last DIIS Error            ...    2.8460e-03  Tolerance :   5.0000e-07
  Last Orbital Gradient      ...    5.4248e-06  Tolerance :   1.0000e-05
  Last Orbital Rotation      ...    3.8898e-05  Tolerance :   1.0000e-05


----------------------
UHF SPIN CONTAMINATION
----------------------

Warning: in a DFT calculation there is little theoretical justification to 
         calculate <S**2> as in Hartree-Fock theory. We will do it anyways
         but you should keep in mind that the values have only limited relevance

Expectation value of <S**2>     :     2.008774
Ideal value S*(S+1) for S=1.0   :     2.000000
Deviation                       :     0.008774

----------------
ORBITAL ENERGIES
----------------
                 SPIN UP ORBITALS
  NO   OCC          E(Eh)            E(eV) 
   0   1.0000     -19.390480      -527.6418 
   1   1.0000     -10.417756      -283.4816 
   2   1.0000     -10.365795      -282.0676 
   3   1.0000      -1.168238       -31.7894 
   4   1.0000      -0.883105       -24.0305 
   5   1.0000      -0.728904       -19.8345 
   6   1.0000      -0.610660       -16.6169 
   7   1.0000      -0.590485       -16.0679 
   8   1.0000      -0.552047       -15.0220 
   9   1.0000      -0.519717       -14.1422 
  10   1.0000      -0.438729       -11.9384 
  11   1.0000      -0.414851       -11.2887 
  12   1.0000      -0.323032        -8.7901 
  13   0.0000       0.040623         1.1054 
  14   0.0000       0.060513         1.6466 
  15   0.0000       0.077979         2.1219 
  16   0.0000       0.085771         2.3339 
  17   0.0000       0.112601         3.0640 
  18   0.0000       0.121959         3.3187 
  19   0.0000       0.130371         3.5476 
  20   0.0000       0.142086         3.8663 
  21   0.0000       0.179379         4.8811 
  22   0.0000       0.186028         5.0621 
  23   0.0000       0.199427         5.4267 

                 SPIN DOWN ORBITALS
  NO   OCC          E(Eh)            E(eV) 
   0   1.0000     -19.366992      -527.0026 
   1   1.0000     -10.419397      -283.5262 
   2   1.0000     -10.352717      -281.7117 
   3   1.0000      -1.115153       -30.3449 
   4   1.0000      -0.850981       -23.1564 
   5   1.0000      -0.702144       -19.1063 
   6   1.0000      -0.586361       -15.9557 
   7   1.0000      -0.540416       -14.7055 
   8   1.0000      -0.531700       -14.4683 
   9   1.0000      -0.491657       -13.3787 
  10   1.0000      -0.384473       -10.4620 
  11   0.0000      -0.057910        -1.5758 
  12   0.0000      -0.002665        -0.0725 
  13   0.0000       0.039846         1.0843 
  14   0.0000       0.060677         1.6511 
  15   0.0000       0.077693         2.1141 
  16   0.0000       0.087179         2.3723 
  17   0.0000       0.113138         3.0787 
  18   0.0000       0.125020         3.4020 
  19   0.0000       0.134094         3.6489 
  20   0.0000       0.143949         3.9170 
  21   0.0000       0.185845         5.0571 
*Only the first 10 virtual orbitals were printed.

                    ********************************
                    * MULLIKEN POPULATION ANALYSIS *
                    ********************************

--------------------------------------------
MULLIKEN ATOMIC CHARGES AND SPIN POPULATIONS
--------------------------------------------
   0 O :   -0.335028    0.904138
   1 C :    0.087645    0.001681
   2 C :   -0.645764    0.850508
   3 H :    0.183238    0.058199
   4 H :    0.194446    0.135650
   5 H :    0.245907    0.026749
   6 H :    0.269557    0.023075
Sum of atomic charges         :    0.0000000
Sum of atomic spin populations:    2.0000000

-----------------------------------------------------
MULLIKEN REDUCED ORBITAL CHARGES AND SPIN POPULATIONS
-----------------------------------------------------
CHARGE
  0 O s       :     4.000945  s :     4.000945
      pz      :     1.189661  p :     4.311281
      px      :     1.719796
      py      :     1.401824
      dz2     :     0.005955  d :     0.021553
      dxz     :     0.003824
      dyz     :     0.004899
      dx2y2   :     0.002397
      dxy     :     0.004479
      f0      :     0.000092  f :     0.001249
      f+1     :     0.000164
      f-1     :     0.000199
      f+2     :     0.000172
      f-2     :     0.000325
      f+3     :     0.000171
      f-3     :     0.000126

  1 C s       :     3.186877  s :     3.186877
      pz      :     0.794644  p :     2.541211
      px      :     0.859963
      py      :     0.886603
      dz2     :     0.015182  d :     0.173676
      dxz     :     0.059822
      dyz     :     0.040273
      dx2y2   :     0.033469
      dxy     :     0.024930
      f0      :     0.000865  f :     0.010592
      f+1     :     0.001093
      f-1     :     0.001361
      f+2     :     0.002614
      f-2     :     0.002321
      f+3     :     0.000945
      f-3     :     0.001391

  2 C s       :     3.620511  s :     3.620511
      pz      :     1.033079  p :     2.996790
      px      :     1.054231
      py      :     0.909480
      dz2     :     0.007703  d :     0.024745
      dxz     :     0.001907
      dyz     :     0.010094
      dx2y2   :     0.008741
      dxy     :    -0.003700
      f0      :     0.000478  f :     0.003719
      f+1     :     0.000669
      f-1     :     0.000444
      f+2     :     0.000643
      f-2     :     0.000569
      f+3     :     0.000354
      f-3     :     0.000562

  3 H s       :     0.768935  s :     0.768935
      pz      :     0.017038  p :     0.045209
      px      :     0.016549
      py      :     0.011623
      dz2     :     0.000520  d :     0.002617
      dxz     :     0.000627
      dyz     :     0.000448
      dx2y2   :     0.000526
      dxy     :     0.000496

  4 H s       :     0.775275  s :     0.775275
      pz      :     0.012100  p :     0.027956
      px      :     0.004346
      py      :     0.011510
      dz2     :     0.000379  d :     0.002323
      dxz     :     0.000383
      dyz     :     0.000504
      dx2y2   :     0.000474
      dxy     :     0.000583

  5 H s       :     0.710194  s :     0.710194
      pz      :     0.009724  p :     0.041525
      px      :     0.010211
      py      :     0.021590
      dz2     :     0.000700  d :     0.002374
      dxz     :     0.000653
      dyz     :     0.000802
      dx2y2   :     0.000098
      dxy     :     0.000122

  6 H s       :     0.689035  s :     0.689035
      pz      :     0.007238  p :     0.039147
      px      :     0.016490
      py      :     0.015419
      dz2     :     0.000211  d :     0.002261
      dxz     :     0.000636
      dyz     :     0.000115
      dx2y2   :     0.000591
      dxy     :     0.000708


SPIN
  0 O s       :     0.002480  s :     0.002480
      pz      :     0.520106  p :     0.906378
      px      :     0.064152
      py      :     0.322120
      dz2     :    -0.002784  d :    -0.004534
      dxz     :    -0.000488
      dyz     :     0.000321
      dx2y2   :    -0.000018
      dxy     :    -0.001565
      f0      :    -0.000050  f :    -0.000186
      f+1     :    -0.000015
      f-1     :    -0.000077
      f+2     :    -0.000032
      f-2     :    -0.000069
      f+3     :     0.000034
      f-3     :     0.000024

  1 C s       :     0.001673  s :     0.001673
      pz      :    -0.024485  p :    -0.091107
      px      :    -0.025409
      py      :    -0.041214
      dz2     :     0.021631  d :     0.088342
      dxz     :     0.026958
      dyz     :     0.009926
      dx2y2   :     0.006126
      dxy     :     0.023700
      f0      :     0.000515  f :     0.002773
      f+1     :     0.000476
      f-1     :     0.000509
      f+2     :     0.000507
      f-2     :     0.000200
      f+3     :     0.000494
      f-3     :     0.000073

  2 C s       :    -0.031784  s :    -0.031784
      pz      :     0.035727  p :     0.894388
      px      :     0.154302
      py      :     0.704360
      dz2     :    -0.000285  d :    -0.011044
      dxz     :    -0.002585
      dyz     :    -0.000219
      dx2y2   :    -0.002681
      dxy     :    -0.005275
      f0      :    -0.000153  f :    -0.001052
      f+1     :    -0.000112
      f-1     :    -0.000046
      f+2     :    -0.000147
      f-2     :    -0.000144
      f+3     :    -0.000144
      f-3     :    -0.000305

  3 H s       :     0.053171  s :     0.053171
      pz      :     0.001689  p :     0.005026
      px      :     0.002112
      py      :     0.001224
      dz2     :    -0.000022  d :     0.000002
      dxz     :     0.000023
      dyz     :    -0.000007
      dx2y2   :    -0.000021
      dxy     :     0.000028

  4 H s       :     0.128218  s :     0.128218
      pz      :     0.001459  p :     0.007313
      px      :     0.001432
      py      :     0.004422
      dz2     :     0.000004  d :     0.000119
      dxz     :     0.000044
      dyz     :     0.000030
      dx2y2   :     0.000009
      dxy     :     0.000032

  5 H s       :    -0.000856  s :    -0.000856
      pz      :     0.001340  p :     0.026555
      px      :     0.005209
      py      :     0.020006
      dz2     :     0.000055  d :     0.001050
      dxz     :     0.000200
      dyz     :     0.000656
      dx2y2   :     0.000048
      dxy     :     0.000092

  6 H s       :     0.000866  s :     0.000866
      pz      :     0.000868  p :     0.021215
      px      :     0.005468
      py      :     0.014878
      dz2     :     0.000035  d :     0.000994
      dxz     :     0.000134
      dyz     :     0.000058
      dx2y2   :     0.000280
      dxy     :     0.000487



                     *******************************
                     * LOEWDIN POPULATION ANALYSIS *
                     *******************************

-------------------------------------------
LOEWDIN ATOMIC CHARGES AND SPIN POPULATIONS
-------------------------------------------
   0 O :    0.049756    0.842792
   1 C :   -0.288933    0.216113
   2 C :    0.240256    0.659224
   3 H :    0.018877    0.027865
   4 H :    0.085271    0.097691
   5 H :   -0.069963    0.084560
   6 H :   -0.035265    0.071755

----------------------------------------------------
LOEWDIN REDUCED ORBITAL CHARGES AND SPIN POPULATIONS
----------------------------------------------------
CHARGE
  0 O s       :     3.478709  s :     3.478709
      pz      :     1.205563  p :     4.210315
      px      :     1.622624
      py      :     1.382127
      dz2     :     0.054207  d :     0.257242
      dxz     :     0.053406
      dyz     :     0.056535
      dx2y2   :     0.044129
      dxy     :     0.048965
      f0      :     0.000331  f :     0.003978
      f+1     :     0.000507
      f-1     :     0.000750
      f+2     :     0.000800
      f-2     :     0.000835
      f+3     :     0.000423
      f-3     :     0.000333

  1 C s       :     2.661210  s :     2.661210
      pz      :     0.867325  p :     2.609267
      px      :     0.881564
      py      :     0.860378
      dz2     :     0.146836  d :     0.934594
      dxz     :     0.241234
      dyz     :     0.231311
      dx2y2   :     0.138255
      dxy     :     0.176957
      f0      :     0.010861  f :     0.083862
      f+1     :     0.009882
      f-1     :     0.010969
      f+2     :     0.016252
      f-2     :     0.014882
      f+3     :     0.009040
      f-3     :     0.011977

  2 C s       :     2.732859  s :     2.732859
      pz      :     0.945065  p :     2.600024
      px      :     0.916768
      py      :     0.738191
      dz2     :     0.123452  d :     0.402753
      dxz     :     0.099389
      dyz     :     0.058698
      dx2y2   :     0.053405
      dxy     :     0.067808
      f0      :     0.003187  f :     0.024107
      f+1     :     0.005555
      f-1     :     0.002635
      f+2     :     0.003683
      f-2     :     0.004178
      f+3     :     0.002223
      f-3     :     0.002647

  3 H s       :     0.681833  s :     0.681833
      pz      :     0.089757  p :     0.269947
      px      :     0.099384
      py      :     0.080806
      dz2     :     0.005097  d :     0.029342
      dxz     :     0.007199
      dyz     :     0.004861
      dx2y2   :     0.006103
      dxy     :     0.006082

  4 H s       :     0.658678  s :     0.658678
      pz      :     0.072917  p :     0.232664
      px      :     0.075725
      py      :     0.084023
      dz2     :     0.003326  d :     0.023386
      dxz     :     0.004365
      dyz     :     0.004996
      dx2y2   :     0.004938
      dxy     :     0.005761

  5 H s       :     0.729791  s :     0.729791
      pz      :     0.129746  p :     0.307008
      px      :     0.090369
      py      :     0.086893
      dz2     :     0.011543  d :     0.033164
      dxz     :     0.009557
      dyz     :     0.009308
      dx2y2   :     0.001380
      dxy     :     0.001375

  6 H s       :     0.726291  s :     0.726291
      pz      :     0.072690  p :     0.279675
      px      :     0.124303
      py      :     0.082682
      dz2     :     0.003363  d :     0.029300
      dxz     :     0.007391
      dyz     :     0.001268
      dx2y2   :     0.008670
      dxy     :     0.008607


SPIN
  0 O s       :     0.012924  s :     0.012924
      pz      :     0.465926  p :     0.816455
      px      :     0.061252
      py      :     0.289277
      dz2     :     0.006657  d :     0.013447
      dxz     :     0.003353
      dyz     :     0.000359
      dx2y2   :     0.000027
      dxy     :     0.003052
      f0      :    -0.000039  f :    -0.000034
      f+1     :     0.000023
      f-1     :     0.000004
      f+2     :     0.000032
      f-2     :    -0.000085
      f+3     :     0.000043
      f-3     :    -0.000011

  1 C s       :    -0.005406  s :    -0.005406
      pz      :    -0.005807  p :    -0.025334
      px      :    -0.012111
      py      :    -0.007416
      dz2     :     0.045980  d :     0.224380
      dxz     :     0.055802
      dyz     :     0.033525
      dx2y2   :     0.027415
      dxy     :     0.061658
      f0      :     0.005199  f :     0.022473
      f+1     :     0.003739
      f-1     :     0.003771
      f+2     :     0.003616
      f-2     :     0.001475
      f+3     :     0.003681
      f-3     :     0.000993

  2 C s       :     0.012725  s :     0.012725
      pz      :     0.028114  p :     0.646984
      px      :     0.104711
      py      :     0.514159
      dz2     :    -0.001246  d :     0.000027
      dxz     :     0.000063
      dyz     :     0.000004
      dx2y2   :    -0.001266
      dxy     :     0.002473
      f0      :    -0.000231  f :    -0.000512
      f+1     :     0.000004
      f-1     :     0.000041
      f+2     :    -0.000249
      f-2     :    -0.000162
      f+3     :     0.000265
      f-3     :    -0.000180

  3 H s       :     0.027060  s :     0.027060
      pz      :     0.001249  p :     0.001209
      px      :     0.000378
      py      :    -0.000418
      dz2     :    -0.000117  d :    -0.000404
      dxz     :    -0.000093
      dyz     :    -0.000049
      dx2y2   :    -0.000170
      dxy     :     0.000025

  4 H s       :     0.087081  s :     0.087081
      pz      :     0.007570  p :     0.011107
      px      :    -0.000099
      py      :     0.003636
      dz2     :    -0.000070  d :    -0.000497
      dxz     :    -0.000036
      dyz     :    -0.000076
      dx2y2   :    -0.000075
      dxy     :    -0.000240

  5 H s       :    -0.009729  s :    -0.009729
      pz      :     0.005289  p :     0.083069
      px      :     0.015470
      py      :     0.062310
      dz2     :     0.000587  d :     0.011220
      dxz     :     0.001867
      dyz     :     0.007339
      dx2y2   :     0.000542
      dxy     :     0.000885

  6 H s       :    -0.013125  s :    -0.013125
      pz      :     0.002138  p :     0.074852
      px      :     0.014196
      py      :     0.058518
      dz2     :     0.000279  d :     0.010027
      dxz     :     0.000480
      dyz     :     0.000564
      dx2y2   :     0.003477
      dxy     :     0.005228



                      *****************************
                      * MAYER POPULATION ANALYSIS *
                      *****************************

  NA   - Mulliken gross atomic population
  ZA   - Total nuclear charge
  QA   - Mulliken gross atomic charge
  VA   - Mayer's total valence
  BVA  - Mayer's bonded valence
  FA   - Mayer's free valence

  ATOM       NA         ZA         QA         VA         BVA        FA
  0 O      8.3350     8.0000    -0.3350     1.8301     1.0825     0.7476
  1 C      5.9124     6.0000     0.0876     3.5164     3.5005     0.0160
  2 C      6.6458     6.0000    -0.6458     3.4752     2.7291     0.7461
  3 H      0.8168     1.0000     0.1832     1.0481     1.0459     0.0022
  4 H      0.8056     1.0000     0.1944     0.9975     0.9802     0.0173
  5 H      0.7541     1.0000     0.2459     0.9359     0.9355     0.0004
  6 H      0.7304     1.0000     0.2696     0.9402     0.9399     0.0003

  Mayer bond orders larger than 0.100000
B(  0-O ,  1-C ) :   0.9195 B(  1-C ,  2-C ) :   0.7477 B(  1-C ,  3-H ) :   0.9958 
B(  1-C ,  4-H ) :   0.9101 B(  2-C ,  5-H ) :   0.9801 B(  2-C ,  6-H ) :   0.9405 


-------
TIMINGS
-------

Total SCF time: 0 days 0 hours 0 min 7 sec 

Total time                  ....       7.708 sec
Sum of individual times     ....       7.673 sec  ( 99.5%)

SCF preparation             ....       1.701 sec  ( 22.1%)
Fock matrix formation       ....       4.683 sec  ( 60.8%)
  Startup                   ....       0.080 sec  (  1.7% of F)
  Split-RI-J                ....       0.509 sec  ( 10.9% of F)
  Chain of spheres X        ....       2.644 sec  ( 56.4% of F)
  XC integration            ....       1.171 sec  ( 25.0% of F)
    XC Preparation          ....       0.000 sec  (  0.0% of XC)
    Basis function eval.    ....       0.056 sec  (  4.8% of XC)
    Density eval.           ....       0.198 sec  ( 16.9% of XC)
    XC-Functional eval.     ....       0.015 sec  (  1.3% of XC)
    XC-Potential eval.      ....       0.301 sec  ( 25.7% of XC)
Diagonalization             ....       0.000 sec  (  0.0%)
Density matrix formation    ....       0.156 sec  (  2.0%)
Total Energy calculation    ....       0.162 sec  (  2.1%)
Population analysis         ....       0.043 sec  (  0.6%)
Orbital Transformation      ....       0.084 sec  (  1.1%)
[...]
[1741610811.002164] [ohm:3445895:0]        ib_iface.c:1059 UCX  ERROR ibv_create_cq(cqe=256) failed: Connection timed out
[1741610811.003392] [ohm:3445842:0]        ib_iface.c:1059 UCX  ERROR ibv_create_cq(cqe=256) failed: Connection timed out
[1741610811.005668] [ohm:3445927:0]        ib_iface.c:1059 UCX  ERROR ibv_create_cq(cqe=256) failed: Connection timed out
[1741610811.007259] [ohm:3445925:0]        ib_iface.c:1059 UCX  ERROR ibv_create_cq(cqe=256) failed: Connection timed out
[1741610811.007917] [ohm:3445908:0]        ib_iface.c:1059 UCX  ERROR ibv_create_cq(cqe=256) failed: Connection timed out
[1741610811.008544] [ohm:3445932:0]        ib_iface.c:1059 UCX  ERROR ibv_create_cq(cqe=256) failed: Connection timed out
[1741610811.011756] [ohm:3445899:0]        ib_iface.c:1059 UCX  ERROR ibv_create_cq(cqe=256) failed: Connection timed out
[1741610811.012887] [ohm:3445878:0]        ib_iface.c:1059 UCX  ERROR ibv_create_cq(cqe=256) failed: Connection timed out
[1741610811.014065] [ohm:3445845:0]        ib_iface.c:1059 UCX  ERROR ibv_create_cq(cqe=256) failed: Connection timed out
[1741610811.014138] [ohm:3445921:0]        ib_iface.c:1059 UCX  ERROR ibv_create_cq(cqe=256) failed: Connection timed out


           ************************************************************
           *        Program running with 64 parallel MPI-processes    *
           *              working on a common directory               *
           ************************************************************

------------------------------------------------------------------------------
                              ORCA PROPERTY CALCULATIONS
------------------------------------------------------------------------------

GBWName                                 ... orca.gbw
Number of atoms                         ...      7
Number of basis functions               ...    182
Max core memory                         ...   1024 MB

Electric properties:
Dipole moment                           ... YES
Quadrupole moment                       ...  NO
Static polarizability (Dipole/Dipole)   ...  NO
Static polarizability (Dipole/Quad.)    ...  NO
Static polarizability (Quad./Quad.)     ...  NO
Static polarizability (Velocity)        ...  NO

Atomic electric properties:
Dipole moment                           ...  NO
Quadrupole moment                       ...  NO
Static polarizability                   ...  NO

Choice of electric origin               ... Center of mass
Position of electric origin             ...     0.801807     0.126041     0.139148

General magnetic properties:
Magnetizability                         ...  NO

EPR properties:
g-Tensor (aka g-matrix)                 ...  NO
Zero-Field splitting spin-orbit         ...  NO
Zero-field splitting spin-spin          ...  NO
Hyperfine couplings                     ...  NO (   0 nuclei)
Quadrupole couplings                    ...  NO (   0 nuclei)
Contact density                         ...  NO (   0 nuclei)

NMR properties:
Chemical shifts                         ...  NO (   0 nuclei)
Spin-rotation constants                 ...  NO (   0 nuclei)
Spin-spin couplings                     ...  NO (   0 nuclei,    0 pairs)

Choice of magnetic origin               ... GIAO
Position of magnetic origin             ...     0.000000     0.000000     0.000000

Properties with geometric perturbations:
SCF Hessian                             ...  NO
IR spectrum                             ...  NO
VCD spectrum                            ...  NO
X-ray spectroscopy properties:
SCF XES/XAS/RIXS spectra                ...  NO


-------------
DIPOLE MOMENT
-------------

Method             : SCF
Type of density    : Electron Density
Multiplicity       :   3
Irrep              :   0
Energy             :  -153.7802732822255791 Eh
Relativity type    : 
Basis              : AO
                                X                 Y                 Z
Electronic contribution:      0.612612151       1.503333448       2.018713320
Nuclear contribution   :     -1.019724734      -1.958329287      -2.492630627
                        -----------------------------------------
Total Dipole Moment    :     -0.407112583      -0.454995839      -0.473917307
                        -----------------------------------------
Magnitude (a.u.)       :      0.772890344
Magnitude (Debye)      :      1.964531130



--------------------
Rotational spectrum 
--------------------
 
Rotational constants in cm-1:             1.423438             0.355263             0.307970 
Rotational constants in MHz :         42673.605327         10650.514486          9232.705882 

Dipole components along the rotational axes: 
x,y,z [a.u.] :    -0.608395     0.473296     0.056614 
x,y,z [Debye]:    -1.546418     1.203023     0.143901 

 

-------------
DIPOLE MOMENT
-------------

Method             : TDA/CIS
Type of density    : Electron Density
Level              : Relaxed density
State              :   2
Multiplicity       :   3
Irrep              :   0
Energy             :     0.0000000000000000 Eh
Relativity type    : 
Basis              : AO
                                X                 Y                 Z
Electronic contribution:      0.609707160       1.559983652       2.078115985
Nuclear contribution   :     -1.019724734      -1.958329287      -2.492630627
                        -----------------------------------------
Total Dipole Moment    :     -0.410017575      -0.398345635      -0.414514642
                        -----------------------------------------
Magnitude (a.u.)       :      0.706127499
Magnitude (Debye)      :      1.794833464



--------------------
Rotational spectrum 
--------------------
 
Rotational constants in cm-1:             1.423438             0.355263             0.307970 
Rotational constants in MHz :         42673.605327         10650.514486          9232.705882 

Dipole components along the rotational axes: 
x,y,z [a.u.] :    -0.526969     0.467619     0.047453 
x,y,z [Debye]:    -1.339450     1.188593     0.120616 

 

Dipole moment calculation done in   0.0 sec 

Maximum memory used throughout the entire PROP-calculation: 7.4 MB
[1741610812.749233] [ohm:3446130:0]        ib_iface.c:1059 UCX  ERROR ibv_create_cq(cqe=256) failed: Connection timed out
[1741610812.755258] [ohm:3446160:0]        ib_iface.c:1059 UCX  ERROR ibv_create_cq(cqe=256) failed: Connection timed out
[1741610812.760095] [ohm:3446134:0]        ib_iface.c:1059 UCX  ERROR ibv_create_cq(cqe=256) failed: Connection timed out
[1741610812.764236] [ohm:3446135:0]        ib_iface.c:1059 UCX  ERROR ibv_create_cq(cqe=256) failed: Connection timed out
[1741610812.770898] [ohm:3446128:0]        ib_iface.c:1059 UCX  ERROR ibv_create_cq(cqe=256) failed: Connection timed out
[1741610812.787081] [ohm:3446191:0]        ib_iface.c:1059 UCX  ERROR ibv_create_cq(cqe=256) failed: Connection timed out
[1741610812.793512] [ohm:3446159:0]        ib_iface.c:1059 UCX  ERROR ibv_create_cq(cqe=256) failed: Connection timed out
[1741610812.815833] [ohm:3446132:0]        ib_iface.c:1059 UCX  ERROR ibv_create_cq(cqe=256) failed: Connection timed out
[1741610812.824408] [ohm:3446127:0]        ib_iface.c:1059 UCX  ERROR ibv_create_cq(cqe=256) failed: Connection timed out
[1741610812.825801] [ohm:3446133:0]        ib_iface.c:1059 UCX  ERROR ibv_create_cq(cqe=256) failed: Connection timed out
[1741610812.833177] [ohm:3446179:0]        ib_iface.c:1059 UCX  ERROR ibv_create_cq(cqe=256) failed: Connection timed out
[1741610812.835431] [ohm:3446162:0]        ib_iface.c:1059 UCX  ERROR ibv_create_cq(cqe=256) failed: Connection timed out
[1741610812.844930] [ohm:3446140:0]        ib_iface.c:1059 UCX  ERROR ibv_create_cq(cqe=256) failed: Connection timed out
[1741610812.845787] [ohm:3446144:0]        ib_iface.c:1059 UCX  ERROR ibv_create_cq(cqe=256) failed: Connection timed out
[1741610812.846847] [ohm:3446157:0]        ib_iface.c:1059 UCX  ERROR ibv_create_cq(cqe=256) failed: Connection timed out
[1741610812.882424] [ohm:3446230:0]        ib_iface.c:1059 UCX  ERROR ibv_create_cq(cqe=256) failed: Connection timed out
[1741610812.886663] [ohm:3446188:0]        ib_iface.c:1059 UCX  ERROR ibv_create_cq(cqe=256) failed: Connection timed out
[1741610812.893040] [ohm:3446165:0]        ib_iface.c:1059 UCX  ERROR ibv_create_cq(cqe=256) failed: Connection timed out
[1741610812.899976] [ohm:3446205:0]        ib_iface.c:1059 UCX  ERROR ibv_create_cq(cqe=256) failed: Connection timed out
[1741610812.911007] [ohm:3446182:0]        ib_iface.c:1059 UCX  ERROR ibv_create_cq(cqe=256) failed: Connection timed out
[1741610812.916521] [ohm:3446142:0]        ib_iface.c:1059 UCX  ERROR ibv_create_cq(cqe=256) failed: Connection timed out
[1741610812.922062] [ohm:3446164:0]        ib_iface.c:1059 UCX  ERROR ibv_create_cq(cqe=256) failed: Connection timed out
[1741610812.931513] [ohm:3446138:0]        ib_iface.c:1059 UCX  ERROR ibv_create_cq(cqe=256) failed: Connection timed out
[1741610812.932946] [ohm:3446276:0]        ib_iface.c:1059 UCX  ERROR ibv_create_cq(cqe=256) failed: Connection timed out
[1741610812.942926] [ohm:3446234:0]        ib_iface.c:1059 UCX  ERROR ibv_create_cq(cqe=256) failed: Connection timed out
[1741610812.943181] [ohm:3446202:0]        ib_iface.c:1059 UCX  ERROR ibv_create_cq(cqe=256) failed: Connection timed out
[1741610812.949055] [ohm:3446137:0]        ib_iface.c:1059 UCX  ERROR ibv_create_cq(cqe=256) failed: Connection timed out
[1741610812.953005] [ohm:3446187:0]        ib_iface.c:1059 UCX  ERROR ibv_create_cq(cqe=256) failed: Connection timed out
[1741610812.958777] [ohm:3446131:0]        ib_iface.c:1059 UCX  ERROR ibv_create_cq(cqe=256) failed: Connection timed out
[1741610812.980809] [ohm:3446163:0]        ib_iface.c:1059 UCX  ERROR ibv_create_cq(cqe=256) failed: Connection timed out
[1741610812.988210] [ohm:3446252:0]        ib_iface.c:1059 UCX  ERROR ibv_create_cq(cqe=256) failed: Connection timed out
[1741610812.988630] [ohm:3446198:0]        ib_iface.c:1059 UCX  ERROR ibv_create_cq(cqe=256) failed: Connection timed out
[1741610812.994067] [ohm:3446161:0]        ib_iface.c:1059 UCX  ERROR ibv_create_cq(cqe=256) failed: Connection timed out
[1741610812.996500] [ohm:3446173:0]        ib_iface.c:1059 UCX  ERROR ibv_create_cq(cqe=256) failed: Connection timed out
[1741610812.997295] [ohm:3446190:0]        ib_iface.c:1059 UCX  ERROR ibv_create_cq(cqe=256) failed: Connection timed out
[1741610812.999550] [ohm:3446217:0]        ib_iface.c:1059 UCX  ERROR ibv_create_cq(cqe=256) failed: Connection timed out
[1741610813.019132] [ohm:3446129:0]        ib_iface.c:1059 UCX  ERROR ibv_create_cq(cqe=256) failed: Connection timed out
[1741610813.020898] [ohm:3446171:0]        ib_iface.c:1059 UCX  ERROR ibv_create_cq(cqe=256) failed: Connection timed out
[1741610813.022248] [ohm:3446258:0]        ib_iface.c:1059 UCX  ERROR ibv_create_cq(cqe=256) failed: Connection timed out
[1741610813.022902] [ohm:3446192:0]        ib_iface.c:1059 UCX  ERROR ibv_create_cq(cqe=256) failed: Connection timed out
[1741610813.026473] [ohm:3446158:0]        ib_iface.c:1059 UCX  ERROR ibv_create_cq(cqe=256) failed: Connection timed out
[1741610813.027222] [ohm:3446225:0]        ib_iface.c:1059 UCX  ERROR ibv_create_cq(cqe=256) failed: Connection timed out
[1741610813.031918] [ohm:3446136:0]        ib_iface.c:1059 UCX  ERROR ibv_create_cq(cqe=256) failed: Connection timed out
[1741610813.034706] [ohm:3446248:0]        ib_iface.c:1059 UCX  ERROR ibv_create_cq(cqe=256) failed: Connection timed out
[1741610813.037552] [ohm:3446282:0]        ib_iface.c:1059 UCX  ERROR ibv_create_cq(cqe=256) failed: Connection timed out
[1741610813.038187] [ohm:3446195:0]        ib_iface.c:1059 UCX  ERROR ibv_create_cq(cqe=256) failed: Connection timed out
[1741610813.044209] [ohm:3446221:0]        ib_iface.c:1059 UCX  ERROR ibv_create_cq(cqe=256) failed: Connection timed out
[1741610813.052408] [ohm:3446197:0]        ib_iface.c:1059 UCX  ERROR ibv_create_cq(cqe=256) failed: Connection timed out
[1741610813.052983] [ohm:3446185:0]        ib_iface.c:1059 UCX  ERROR ibv_create_cq(cqe=256) failed: Connection timed out
[1741610813.060237] [ohm:3446256:0]        ib_iface.c:1059 UCX  ERROR ibv_create_cq(cqe=256) failed: Connection timed out
[1741610813.062248] [ohm:3446194:0]        ib_iface.c:1059 UCX  ERROR ibv_create_cq(cqe=256) failed: Connection timed out
[1741610813.063253] [ohm:3446242:0]        ib_iface.c:1059 UCX  ERROR ibv_create_cq(cqe=256) failed: Connection timed out
[1741610813.063861] [ohm:3446268:0]        ib_iface.c:1059 UCX  ERROR ibv_create_cq(cqe=256) failed: Connection timed out
[1741610813.064698] [ohm:3446229:0]        ib_iface.c:1059 UCX  ERROR ibv_create_cq(cqe=256) failed: Connection timed out
[1741610813.068727] [ohm:3446237:0]        ib_iface.c:1059 UCX  ERROR ibv_create_cq(cqe=256) failed: Connection timed out
[1741610813.070399] [ohm:3446279:0]        ib_iface.c:1059 UCX  ERROR ibv_create_cq(cqe=256) failed: Connection timed out
[1741610813.070373] [ohm:3446139:0]        ib_iface.c:1059 UCX  ERROR ibv_create_cq(cqe=256) failed: Connection timed out
[1741610813.070973] [ohm:3446261:0]        ib_iface.c:1059 UCX  ERROR ibv_create_cq(cqe=256) failed: Connection timed out
[1741610813.071178] [ohm:3446210:0]        ib_iface.c:1059 UCX  ERROR ibv_create_cq(cqe=256) failed: Connection timed out
[1741610813.072211] [ohm:3446215:0]        ib_iface.c:1059 UCX  ERROR ibv_create_cq(cqe=256) failed: Connection timed out
[1741610813.072608] [ohm:3446199:0]        ib_iface.c:1059 UCX  ERROR ibv_create_cq(cqe=256) failed: Connection timed out
[1741610813.074433] [ohm:3446196:0]        ib_iface.c:1059 UCX  ERROR ibv_create_cq(cqe=256) failed: Connection timed out
[1741610813.075438] [ohm:3446226:0]        ib_iface.c:1059 UCX  ERROR ibv_create_cq(cqe=256) failed: Connection timed out
[1741610813.075955] [ohm:3446272:0]        ib_iface.c:1059 UCX  ERROR ibv_create_cq(cqe=256) failed: Connection timed out

--------------------------------
SUGGESTED CITATIONS FOR THIS RUN
--------------------------------

Below you find a list of papers that are relevant to this ORCA run
We neither can nor want to force you to cite these papers, but we appreciate if you do
You receive ORCA, which is the product of decades of hard work by many enthusiastic individuals, for free
The only thing we kindly ask in return is that you cite our papers,
We deeply appreciate it, if you show your appreciation for ORCA by not just citing the generic ORCA reference.

Please note that relegating all ORCA citations to the supporting information does *not* help us.
SI sections are not indexed - citations you put there will not count into any citation statistics
But we need these citations in order to attract the funding resources that allow us to do what we are doing

Therefore, if you are a happy ORCA user, please consider citing a few of the papers listed below in the main body of your paper

In addition to the list printed below, the program has created the file orca.bibtex that contains the list in bibtex format
You can import this file easily into all common literature databanks and citation aid programs


List of essential papers. We consider these as the minimum necessary citations

  1. Neese,F.
     Software update: the ORCA program system, version 5.0
     WIRES Comput. Molec. Sci., 2022 12(1)e1606
     doi.org/10.1002/wcms.1606

List of papers to cite with high priority. The work reported in these papers was absolutely
necessary for this run to complete.
Our perspective: the developers of density functionals and basis sets usually get cited in chemistry papers
Good! But without the algorithms to do something with them, the functionals or basis sets would not do anything.
Hence, in our opinion, the algorithm design and method developments papers are equally worthy of getting cited

  1. Neese,F.; Olbrich,G.
     Efficient use of the resolution of the identity approximation in time-dependent density functional calculations with hybrid density functionals
     Chem. Phys. Lett., 2002 362 170-178
     doi.org/10.1016/s0009-2614(02)01053-9
  2. Neese,F.
     An improvement of the resolution of the identity approximation for the formation of the Coulomb matrix
     J. Comp. Chem., 2003 24(14)1740-1747
     doi.org/10.1002/jcc.10318
  3. Neese,F.; Wennmohs,F.; Hansen,A.; Becker,U.
     Efficient, approximate and parallel Hartree-Fock and hybrid DFT calculations. A 'chain-of-spheres' algorithm for the Hartree-Fock exchange
     Chem. Phys., 2009 356(1-3)98-109
     doi.org/10.1016/j.chemphys.2008.10.036
  4. Petrenko,T.; Kossmann,S.; Neese,F.
     Efficient time-dependent density functional theory approximations for hybrid density functionals: Analytical gradients and parallelization
     J. Chem. Phys., 2011 134 054116
     doi.org/10.1063/1.3533441
  5. Helmich-Paris,B.; de Souza,B.; Neese,F.; Izsák,R.
     An improved chain of spheres for exchange algorithm
     J. Chem. Phys., 2021 155 104109
     doi.org/doi: 10.1063/5.0058766.
  6. Neese,F.
     The SHARK Integral Generation and Digestion System
     J. Comp. Chem., 2022  1-16
     doi.org/10.1002/jcc.26942
  7. Lehtola,S.; Steigemann,C.; Oliveira,M.; Marques,M.
     Recent developments in Libxc - A comprehensive library of functionals for density functional theory
     Software X, 2018 7 
     doi.org/10.1016/j.softx.2017.11.002
  8. Grimme,S.; Antony,J.; Ehrlich,S.; Krieg,H.
     A consistent and accurate ab initio parametrization of density functional dispersion correction (DFT-D) for the 94 elements H-Pu
     J. Chem. Phys., 2010 132 154104-XXXX
     doi.org/10.1063/1.3382344
  9. Grimme,S.; Ehrlich,S.; Goerigk,L.
     Effect of the damping function in dispersion corrected density functional theory
     J. Comput. Chem., 2011 32(7)1456-1465
     doi.org/10.1002/jcc.21759

List of suggested additional citations. These are papers that are important in the 'surrounding' of 
of this run, or papers that preceded the highly important papers. If you like your results we are grateful for a citation.

  1. Izsak,R.; Neese,F.
     An overlap fitted chain of spheres exchange method
     J. Chem. Phys., 2011 135 144105
     doi.org/10.1063/1.3646921
  2. Izsak,R.; Hansen,A.; Neese,F.
     The resolution of identity and chain of spheres approximations for the LPNO-CCSD singles Fock term
     Molec. Phys., 2012 110 2413-2417
     doi.org/10.1080/00268976.2012.687466
  3. Neese,F.
     The ORCA program system
     WIRES Comput. Molec. Sci., 2012 2(1)73-78
     doi.org/10.1002/wcms.81
  4. Izsak,R.; Neese,F.; Klopper,W.
     Robust fitting techniques in the chain of spheres approximation to the Fock exchange: The role of the complementary space
     J. Chem. Phys., 2013 139 
     doi.org/10.1063/1.4819264
  5. Neese,F.
     Software update: the ORCA program system, version 4.0
     WIRES Comput. Molec. Sci., 2018 8(1)1-6
     doi.org/10.1002/wcms.1327
  6. Neese,F.; Wennmohs,F.; Becker,U.; Riplinger,C.
     The ORCA quantum chemistry program package
     J. Chem. Phys., 2020 152 Art. No. L224108
     doi.org/10.1063/5.0004608

List of optional additional citations

  1. Neese,F.
     Approximate second-order SCF convergence for spin unrestricted wavefunctions
     Chem. Phys. Lett., 2000 325(1-3)93-98
     doi.org/10.1016/s0009-2614(00)00662-x

Timings for individual modules:

Sum of individual times          ...       24.604 sec (=   0.410 min)
Startup calculation              ...        2.439 sec (=   0.041 min)   9.9 %
SCF iterations                   ...       10.339 sec (=   0.172 min)  42.0 %
Property integrals               ...        2.114 sec (=   0.035 min)   8.6 %
Property calculations            ...        2.004 sec (=   0.033 min)   8.1 %
CIS module                       ...        7.708 sec (=   0.128 min)  31.3 %
                             ****ORCA TERMINATED NORMALLY****
TOTAL RUN TIME: 0 days 0 hours 0 minutes 26 seconds 722 msec
