30
Properties=species:S:1:pos:R:3:momenta:R:3:forces:R:3 Coordinates=T from=T ORCA-job=T orca=T E=T -908.717834524281=T energy=-24726.23688138484 free_energy=-24726.23688138484 stress="-3.416481268622485e-07 2.1295757685423529e-07 1.3983899459957381e-06 2.1295757685423529e-07 1.2269668510192453e-07 1.021495926529819e-06 1.3983899459957381e-06 1.021495926529819e-06 1.9004297083784141e-06" pbc="F F F"
O        2.14877727      -0.48620194      -1.44618484       0.22525582      -0.47187101      -0.13444079       0.07836483       0.75444098      -0.70867835
O        0.39677669       2.68378291      -1.37738144      -0.72827229       1.05871107      -0.77686767      -0.28964407       0.38457314       0.20691628
O        0.19975580      -3.83406331       0.76351787       0.98266114       0.66651933      -0.04084064       0.00854018      -0.78300640       0.17362892
O       -2.23082226      -0.99367962      -1.52845200       0.61285390      -0.28834419       0.05226949      -0.73133360      -0.58491720      -0.83577099
N        0.75429042      -1.97277030       1.91230459       0.10780450      -0.20321164      -0.40407623       0.00929524       0.30139442       0.97745308
N       -1.24546103      -0.36850470       0.42860088       0.06642658      -0.30303477      -1.62456727      -0.15663619      -0.54514585      -0.46764480
N        1.05423946      -2.09580327      -0.39192791       0.16365605      -0.23945752       0.45902958      -0.47680103       0.51815369       1.58010127
N       -1.01600611       0.96319336      -1.55024079      -0.54015317      -0.20300799       0.72593804      -0.30006477       0.50663285       0.93731179
C        1.28854519       0.16243658       0.75218890       0.37498156      -0.20202689      -0.50258817       1.01934663      -1.37386366      -1.74106326
C       -1.23819980       2.66775930       0.29932104       0.46177300      -0.80569908       0.71292377       0.12975622       0.04785345      -1.01485884
C        0.80695817      -0.55286058       1.99510758      -0.26581015       0.74496586       0.02587357       0.79420350       0.33196133       0.12082314
C       -0.16137514       0.26178285       1.15161371      -0.61750259      -0.05752530      -0.09737137      -1.45948717       0.74366410       0.88586443
C        2.26764727       1.35663429       0.81131608      -0.60045830      -0.40723173       0.17342058      -1.04812820      -1.34000428      -0.26979637
C       -1.17932031       3.98339741       0.89600604      -0.99226373       0.25866603       0.23477621      -1.84651535      -0.16492581       0.73535089
C        1.49328194      -0.78062764      -0.48682522       0.00740002       0.21447372       0.93568441       0.88058183      -0.10099904       1.22274615
C       -0.57236409       2.12162217      -0.87647594       0.38786379      -0.38602496       0.07346311       0.39806607       0.08389679      -0.19385333
C        0.63990703      -2.71792760       0.79302426       0.36188930       0.30395944      -0.61838129      -0.09277677       0.34367846      -0.90718419
C       -1.59818202      -0.17348611      -0.97161763       0.06659336      -0.22231486      -0.08925909       1.71680977       0.26443573       2.27059537
H        1.22247787      -0.16362992       2.98008793       0.08664364       0.04906106       0.04663051      -0.80895213      -0.35659413      -1.27511664
H       -0.44871941       1.23124950       1.59520981      -0.05892912       0.13225400       0.30228788       0.35158816      -0.88254604      -0.03246760
H        2.61824324       1.57709168      -0.18297358       0.03057762       0.31591482      -0.20361586       0.56926619      -0.22583015      -0.07903342
H        1.65067311       2.15849276       1.02329791       0.01875666      -0.20853673      -0.00027459      -0.86600104       1.63406097       0.57770449
H        2.99219587       1.28019742       1.60831684       0.02964746       0.18520476       0.15530713       0.42082212      -0.22163839      -0.18907149
H       -2.08799132       4.59657872       0.65156255      -0.30079861      -0.15573595       0.16394242       0.08859739      -0.64086184       0.44615706
H       -1.08138994       3.95371735       2.00616452       0.11349917      -0.06518872       0.11751050      -0.11123484       0.04480327      -0.59577085
H       -0.45101434       4.60764942       0.49570516      -0.02355950       0.14093165       0.22803242       1.72699147       0.45409716      -0.64512673
H        0.54620232      -2.45312255       2.76535448      -0.14682414      -0.34168729       0.00941832      -0.16456598      -0.21294745       0.00741353
H       -1.50101874      -1.34851592       0.71459474      -0.00893681       0.27114223       0.00625845       0.20010994       1.34156220      -0.30879154
H        1.13677424      -2.74127167      -1.13870847       0.25905966       0.03055844      -0.02763050       0.10977789      -0.01948088      -0.67415188
H       -0.47950204       0.86614931      -2.39404847      -0.07383482       0.18853620       0.09714706      -0.14997626      -0.30244744      -0.20368609
