
                                 *****************
                                 * O   R   C   A *
                                 *****************

                                            #,                                       
                                            ###                                      
                                            ####                                     
                                            #####                                    
                                            ######                                   
                                           ########,                                 
                                     ,,################,,,,,                         
                               ,,#################################,,                 
                          ,,##########################################,,             
                       ,#########################################, ''#####,          
                    ,#############################################,,   '####,        
                  ,##################################################,,,,####,       
                ,###########''''           ''''###############################       
              ,#####''   ,,,,##########,,,,          '''####'''          '####       
            ,##' ,,,,###########################,,,                        '##       
           ' ,,###''''                  '''############,,,                           
         ,,##''                                '''############,,,,        ,,,,,,###''
      ,#''                                            '''#######################'''  
     '                                                          ''''####''''         
             ,#######,   #######,   ,#######,      ##                                
            ,#'     '#,  ##    ##  ,#'     '#,    #''#        ,####,   ,####,        
            ##       ##  ##   ,#'  ##            #'  '#       #'       #'  '#        
            ##       ##  #######   ##           ,######,      #####,   #    #        
            '#,     ,#'  ##    ##  '#,     ,#' ,#      #,     #,   #   #,  ,#        
             '#######'   ##     ##  '#######'  #'      '#     '####' # '####'        



                #########################################################
                #                        -***-                          #
                #          Department of theory and spectroscopy        #
                #                                                       #
                #                      Frank Neese                      #
                #                                                       #
                #     Directorship, Architecture, Infrastructure        #
                #                    SHARK, DRIVERS                     #
                #        Core code/Algorithms in most modules           #
                #                                                       #
                #        Max Planck Institute fuer Kohlenforschung      #
                #                Kaiser Wilhelm Platz 1                 #
                #                 D-45470 Muelheim/Ruhr                 #
                #                      Germany                          #
                #                                                       #
                #                  All rights reserved                  #
                #                        -***-                          #
                #########################################################


                         Program Version 6.0.0  -   RELEASE  -


 With contributions from (in alphabetic order):
   Daniel Aravena         : Magnetic Suceptibility
   Michael Atanasov       : Ab Initio Ligand Field Theory (pilot matlab implementation)
   Alexander A. Auer      : GIAO ZORA, VPT2 properties, NMR spectrum
   Ute Becker             : All parallelization in ORCA, NUMFREQ, NUMCALC
   Giovanni Bistoni       : ED, misc. LED, open-shell LED, HFLD
   Martin Brehm           : Molecular dynamics
   Dmytro Bykov           : pre 5.0 version of the SCF Hessian
   Marcos Casanova-Páez   : Triplet and SCS-CIS(D). UHF-(DLPNO)-IP/EA/STEOM-CCSD. UHF-CVS-IP/STEOM-CCSD
   Vijay G. Chilkuri      : MRCI spin determinant printing, contributions to CSF-ICE
   Pauline Colinet        : FMM embedding
   Dipayan Datta          : RHF DLPNO-CCSD density
   Achintya Kumar Dutta   : EOM-CC, STEOM-CC
   Nicolas Foglia         : Exact transition moments, OPA infrastructure, MCD improvements
   Dmitry Ganyushin       : Spin-Orbit,Spin-Spin,Magnetic field MRCI
   Miquel Garcia          : C-PCM and meta-GGA Hessian, CCSD/C-PCM, Gaussian charge scheme
   Tiago L. C. Gouveia    : GS-ROHF, GS-ROCIS
   Yang Guo               : DLPNO-NEVPT2, F12-NEVPT2, CIM, IAO-localization
   Andreas Hansen         : Spin unrestricted coupled pair/coupled cluster methods
   Ingolf Harden          : AUTO-CI MPn and infrastructure 
   Benjamin Helmich-Paris : MC-RPA, TRAH-(SCF,CASSCF), AVAS, COSX integrals, SCF dyn. polar.
   Lee Huntington         : MR-EOM, pCC
   Robert Izsak           : Overlap fitted RIJCOSX, COSX-SCS-MP3, EOM
   Riya Kayal             : Wick's Theorem for AUTO-CI, AUTO-CI UHF-CCSDT
   Emily Kempfer          : AUTO-CI, RHF CISDT and CCSDT
   Christian Kollmar      : KDIIS, OOCD, Brueckner-CCSD(T), CCSD density, CASPT2, CASPT2-K, improved NEVPT2
   Axel Koslowski         : Symmetry handling
   Simone Kossmann        : Meta GGA functionals, TD-DFT gradient, OOMP2, (MP2 Hessian; deprecated post 5.0)
   Lucas Lang             : DCDCAS
   Marvin Lechner         : AUTO-CI (C++ implementation), FIC-MRCC
   Spencer Leger          : CASSCF response
   Dagmar Lenk            : GEPOL surface, SMD, ORCA-2-JSON
   Dimitrios Liakos       : Extrapolation schemes; Compound Job, initial MDCI parallelization
   Dimitrios Manganas     : Further ROCIS development; embedding schemes. LFT, Crystal Embedding
   Dimitrios Pantazis     : SARC Basis sets
   Anastasios Papadopoulos: AUTO-CI, single reference methods and gradients
   Taras Petrenko         : pre 6.0 DFT Hessian and TD-DFT gradient, (ASA, deprecated), ECA, 1-Electron XAS/XES, NRVS
   Peter Pinski           : DLPNO-MP2, DLPNO-MP2 Gradient
   Christoph Reimann      : Effective Core Potentials
   Marius Retegan         : Local ZFS, SOC
   Christoph Riplinger    : Optimizer, TS searches, QM/MM, DLPNO-CCSD(T), (RO)-DLPNO pert. Triples
   Michael Roemelt        : Original ROCIS implementation
   Masaaki Saitow         : Open-shell DLPNO-CCSD energy and density
   Barbara Sandhoefer     : DKH picture change effects
   Kantharuban Sivalingam : CASSCF convergence/infrastructure, NEVPT2 and variants, FIC-MRCI
   Bernardo de Souza      : ESD, SOC TD-DFT
   Georgi Stoychev        : AutoAux, RI-MP2 NMR, DLPNO-MP2 response, X2C
   Van Anh Tran           : RI-MP2 g-tensors
   Willem Van den Heuvel  : Paramagnetic NMR
   Zikuan Wang            : NOTCH, Electric field optimization 
   Frank Wennmohs         : Technical directorship and infrastructure
   Hang Xu                : AUTO-CI-Response properties 


 We gratefully acknowledge several colleagues who have allowed us to
 interface, adapt or use parts of their codes:
   Stefan Grimme, W. Hujo, H. Kruse, P. Pracht,  : VdW corrections, initial TS optimization,
                  C. Bannwarth, S. Ehlert,         DFT functionals, gCP, sTDA/sTD-DF
                  L. Wittmann, M. Mueller
   Ed Valeev, F. Pavosevic, A. Kumar             : LibInt (2-el integral package), F12 methods
   Garnet Chan, S. Sharma, J. Yang, R. Olivares  : DMRG
   Ulf Ekstrom                                   : XCFun DFT Library
   Mihaly Kallay                                 : mrcc  (arbitrary order and MRCC methods)
   Frank Weinhold                                : gennbo (NPA and NBO analysis)
   Simon Mueller                                 : openCOSMO-RS
   Christopher J. Cramer and Donald G. Truhlar   : smd solvation model
   Lars Goerigk                                  : TD-DFT with DH, B97 family of functionals
   V. Asgeirsson, H. Jonsson                     : NEB implementation
   FAccTs GmbH                                   : IRC, NEB, NEB-TS, DLPNO-Multilevel, CI-OPT
                                                   MM, QMMM, 2- and 3-layer-ONIOM, Crystal-QMMM,
                                                   LR-CPCM, SF, NACMEs, symmetry and pop. for TD-DFT,
                                                   nearIR, NL-DFT gradient (VV10), updates on ESD,
                                                   ML-optimized integration grids, MBIS, APM,
                                                   GOAT, DOCKER, SOLVATOR, interface openCOSMO-RS
   S Lehtola, MJT Oliveira, MAL Marques          : LibXC Library
   Liviu Ungur et al                             : ANISO software


 Your calculation uses the libint2 library for the computation of 2-el integrals
 For citations please refer to: http://libint.valeyev.net

 Your ORCA version has been built with support for libXC version: 6.2.2
 For citations please refer to: https://libxc.gitlab.io

 This ORCA versions uses:
   CBLAS   interface :  Fast vector & matrix operations
   LAPACKE interface :  Fast linear algebra routines
   SCALAPACK package :  Parallel linear algebra routines
   Shared memory     :  Shared parallel matrices
   BLAS/LAPACK       :  OpenBLAS 0.3.27  USE64BITINT DYNAMIC_ARCH NO_AFFINITY Zen SINGLE_THREADED
        Core in use  :  Zen
   Copyright (c) 2011-2014, The OpenBLAS Project


Your calculation utilizes the atom-pairwise dispersion correction
with the Becke-Johnson damping scheme (D3BJ)


Warning: RI is on but no J-basis has been assigned. Assigning Def2/J (nothing to worry about!)
================================================================================

----- Orbital basis set information -----
Your calculation utilizes the basis: def2-TZVPPD
   F. Weigend and R. Ahlrichs, Phys. Chem. Chem. Phys. 7, 3297 (2005).
   D. Rappoport and F. Furche, J. Chem. Phys. 133, 134105 (2010)
   D. Rappoport, J. Chem. Phys. 155, 124102 (2021).

----- AuxJ basis set information -----
Your calculation utilizes the auxiliary basis: def2/J
   F. Weigend, Phys. Chem. Chem. Phys. 8, 1057 (2006).

================================================================================
                                        WARNINGS
                       Please study these warnings very carefully!
================================================================================

Using LibXC functional ID 531 : wB97M-V exchange-correlation functional
[ 1]  N. Mardirossian and M. Head-Gordon.,  J. Chem. Phys. 144, 214110 (2016)
Using LibXC functional ID 531 : wB97M-V exchange-correlation functional
[ 1]  N. Mardirossian and M. Head-Gordon.,  J. Chem. Phys. 144, 214110 (2016)

WARNING: B97M-V or wB97M-V functional requested.
  ===> : libXC variant has now been activated.
         Any manually given DFX/HFX/RangeSep scaling parameters are IGNORED!

Your calculation utilizes LibXC
 by S Lehtola, C Steigemann, MJT Oliveira & MAL Marques
Please cite in your paper:
 S Lehtola, C Steigemann, MJT Oliveira & MAL Marques, SoftwareX, 7, (2018), 1.
   


WARNING: your system is open-shell and RHF/RKS was chosen
  ===> : WILL SWITCH to UHF/UKS

INFO   : Checking CIS options ...

WARNING: CIS/ROCIS methods need fully converged wavefunctions
  ===> : Setting SCFConvForced true
         You can overwrite this default with %scf ConvForced false 


================================================================================
                                       INPUT FILE
================================================================================
NAME = orca.inp
|  1> ! Engrad def2-TZVPPD wB97M-D3BJ 
|  2> %pal nprocs 8 end%pal nprocs 64 end 
|  3> %tddft 
|  4>  Iroot 1 Nroots 3 
|  5> sf true 
|  6> end 
|  7> *xyz 0 3 
|  8> O   3.5559827 -0.25346192 -0.73361739
|  9> O   -1.41677162 0.96623222 -2.62933128
| 10> O   -0.16098787 -3.00542019 -0.53545253
| 11> O   -3.53259973 -0.64719287 1.00340972
| 12> N   -0.01144468 -1.26476919 0.92627811
| 13> N   -1.82774889 0.82418546 1.29289368
| 14> N   1.70364274 -1.65606813 -0.5748768
| 15> N   -2.23793309 -0.05192015 -0.81671775
| 16> C   1.9050782 0.2209765 0.91813945
| 17> C   -0.39926787 1.49326244 -0.56142063
| 18> C   0.54236006 0.01898971 1.3850668
| 19> C   -0.43685981 1.27912348 0.92557619
| 20> C   2.81593257 1.13067849 1.61040852
| 21> C   0.5144835 2.37905004 -1.25935847
| 22> C   2.50158107 -0.56900038 -0.18181274
| 23> C   -1.30956561 0.77936902 -1.44687619
| 24> C   0.45084629 -2.03013003 -0.07535449
| 25> C   -2.57472174 -0.05373964 0.5485238
| 26> H   0.42433348 0.04006471 2.45778945
| 27> H   -0.08998427 2.14654742 1.48696947
| 28> H   3.62114237 1.41853913 1.0086122
| 29> H   2.21881144 2.02862551 1.90802507
| 30> H   3.1377902 0.74842594 2.63446322
| 31> H   -0.05388838 2.94747148 -1.97378389
| 32> H   0.89253224 3.01188686 -0.50920363
| 33> H   1.28636185 1.89430348 -1.79262022
| 34> H   -0.751116 -1.73272008 1.47557648
| 35> H   -2.01153904 0.79466961 2.28484782
| 36> H   1.91963046 -2.20510459 -1.41924592
| 37> H   -2.64862603 -0.78422204 -1.3400966
| 38> *
| 39> 
| 40>                          ****END OF INPUT****
================================================================================

                     *******************************
                     * Energy+Gradient Calculation *
                     *******************************

---------------------------------
CARTESIAN COORDINATES (ANGSTROEM)
---------------------------------
  O      3.555983   -0.253462   -0.733617
  O     -1.416772    0.966232   -2.629331
  O     -0.160988   -3.005420   -0.535453
  O     -3.532600   -0.647193    1.003410
  N     -0.011445   -1.264769    0.926278
  N     -1.827749    0.824185    1.292894
  N      1.703643   -1.656068   -0.574877
  N     -2.237933   -0.051920   -0.816718
  C      1.905078    0.220976    0.918139
  C     -0.399268    1.493262   -0.561421
  C      0.542360    0.018990    1.385067
  C     -0.436860    1.279123    0.925576
  C      2.815933    1.130678    1.610409
  C      0.514483    2.379050   -1.259358
  C      2.501581   -0.569000   -0.181813
  C     -1.309566    0.779369   -1.446876
  C      0.450846   -2.030130   -0.075354
  C     -2.574722   -0.053740    0.548524
  H      0.424333    0.040065    2.457789
  H     -0.089984    2.146547    1.486969
  H      3.621142    1.418539    1.008612
  H      2.218811    2.028626    1.908025
  H      3.137790    0.748426    2.634463
  H     -0.053888    2.947471   -1.973784
  H      0.892532    3.011887   -0.509204
  H      1.286362    1.894303   -1.792620
  H     -0.751116   -1.732720    1.475576
  H     -2.011539    0.794670    2.284848
  H      1.919630   -2.205105   -1.419246
  H     -2.648626   -0.784222   -1.340097

----------------------------
CARTESIAN COORDINATES (A.U.)
----------------------------
  NO LB      ZA    FRAG     MASS         X           Y           Z
   0 O     8.0000    0    15.999    6.719833   -0.478974   -1.386336
   1 O     8.0000    0    15.999   -2.677310    1.825914   -4.968716
   2 O     8.0000    0    15.999   -0.304223   -5.679421   -1.011859
   3 O     8.0000    0    15.999   -6.675646   -1.223017    1.896170
   4 N     7.0000    0    14.007   -0.021627   -2.390067    1.750412
   5 N     7.0000    0    14.007   -3.453945    1.557485    2.443215
   6 N     7.0000    0    14.007    3.219418   -3.129515   -1.086360
   7 N     7.0000    0    14.007   -4.229081   -0.098115   -1.543373
   8 C     6.0000    0    12.011    3.600076    0.417585    1.735032
   9 C     6.0000    0    12.011   -0.754507    2.821857   -1.060931
  10 C     6.0000    0    12.011    1.024912    0.035885    2.617397
  11 C     6.0000    0    12.011   -0.825545    2.417193    1.749086
  12 C     6.0000    0    12.011    5.321341    2.136673    3.043231
  13 C     6.0000    0    12.011    0.972233    4.495753   -2.379843
  14 C     6.0000    0    12.011    4.727303   -1.075255   -0.343576
  15 C     6.0000    0    12.011   -2.474720    1.472794   -2.734200
  16 C     6.0000    0    12.011    0.851976   -3.836390   -0.142399
  17 C     6.0000    0    12.011   -4.865519   -0.101553    1.036560
  18 H     1.0000    0     1.008    0.801874    0.075711    4.644549
  19 H     1.0000    0     1.008   -0.170046    4.056387    2.809965
  20 H     1.0000    0     1.008    6.842967    2.680650    1.906001
  21 H     1.0000    0     1.008    4.192946    3.833547    3.605645
  22 H     1.0000    0     1.008    5.929564    1.414320    4.978414
  23 H     1.0000    0     1.008   -0.101834    5.569914   -3.729911
  24 H     1.0000    0     1.008    1.686641    5.691641   -0.962255
  25 H     1.0000    0     1.008    2.430872    3.579715   -3.387561
  26 H     1.0000    0     1.008   -1.419404   -3.274366    2.788435
  27 H     1.0000    0     1.008   -3.801258    1.501708    4.317737
  28 H     1.0000    0     1.008    3.627576   -4.167044   -2.681986
  29 H     1.0000    0     1.008   -5.005178   -1.481965   -2.532416

--------------------------------
INTERNAL COORDINATES (ANGSTROEM)
--------------------------------
 O      0   0   0     0.000000000000     0.00000000     0.00000000
 O      1   0   0     5.459823300709     0.00000000     0.00000000
 O      1   2   0     4.629083478380    54.29172937     0.00000000
 O      3   1   2     4.392846417958   108.18844106   311.89768067
 N      3   1   2     2.277912538574    61.34585845   283.63582811
 N      4   3   1     2.270522305493    79.41149087   352.25995151
 N      3   1   2     2.301988828522     1.59877367   219.72793885
 N      2   1   3     2.235287054829    87.20742190    39.15451222
 C      1   2   3     2.383039685146    64.22849940   287.00217089
 C      2   1   3     2.364176218145    49.76750793    95.89651862
 C      9   1   2     1.454586038224   147.55108204    44.62485700
 C     10   2   1     1.502806770957   145.38147907   245.63462410
 C      9   1   2     1.461659967036    91.17330811   228.04826494
 C     10   2   1     1.451440135519    89.22037008    68.57183265
 C      1   2   3     1.231184668865    55.44884412   322.16605850
 C      2   1   3     1.201919724425    62.77033075    62.80462667
 C      3   1   2     1.239847628520    32.00564451   282.39355118
 C      4   3   1     1.215170021083    61.70740087    18.91771231
 H     11   9   1     1.079401831124   114.75535122   148.42625999
 H     12  10   2     1.089912540879   112.84851938   211.71081231
 H     13   9   1     1.045650697338   112.24879004    16.91283690
 H     13   9   1     1.118676944186   107.03445219   137.78562290
 H     13   9   1     1.139472410619   113.13385594   247.46150796
 H     14  10   2     1.075431638073   108.01630233    43.78393528
 H     14  10   2     1.051729801108   104.50889044   161.15405365
 H     14  10   2     1.056003555223   115.01435396   284.29217572
 H      5   3   1     1.033353955026    87.02357810   196.13490886
 H      6   4   3     1.009268557175    88.25930742   241.89935668
 H      7   3  17     1.030073269438    82.61424900   188.03692403
 H      8   2   1     0.989373624922    93.47782372   246.38640360

---------------------------
INTERNAL COORDINATES (A.U.)
---------------------------
 O      0   0   0     0.000000000000     0.00000000     0.00000000
 O      1   0   0    10.317570777943     0.00000000     0.00000000
 O      1   2   0     8.747700025197    54.29172937     0.00000000
 O      3   1   2     8.301276678317   108.18844106   311.89768067
 N      3   1   2     4.304630854930    61.34585845   283.63582811
 N      4   3   1     4.290665338341    79.41149087   352.25995151
 N      3   1   2     4.350128449253     1.59877367   219.72793885
 N      2   1   3     4.224080364327    87.20742190    39.15451222
 C      1   2   3     4.503292371191    64.22849940   287.00217089
 C      2   1   3     4.467645584623    49.76750793    95.89651862
 C      9   1   2     2.748769250470   147.55108204    44.62485700
 C     10   2   1     2.839893229310   145.38147907   245.63462410
 C      9   1   2     2.762137038615    91.17330811   228.04826494
 C     10   2   1     2.742824355912    89.22037008    68.57183265
 C      1   2   3     2.326601844437    55.44884412   322.16605850
 C      2   1   3     2.271299114121    62.77033075    62.80462667
 C      3   1   2     2.342972465695    32.00564451   282.39355118
 C      4   3   1     2.296338545998    61.70740087    18.91771231
 H     11   9   1     2.039773849278   114.75535122   148.42625999
 H     12  10   2     2.059636212187   112.84851938   211.71081231
 H     13   9   1     1.975993449712   112.24879004    16.91283690
 H     13   9   1     2.113993056843   107.03445219   137.78562290
 H     13   9   1     2.153290793230   113.13385594   247.46150796
 H     14  10   2     2.032271271712   108.01630233    43.78393528
 H     14  10   2     1.987481290978   104.50889044   161.15405365
 H     14  10   2     1.995557515819   115.01435396   284.29217572
 H      5   3   1     1.952755974403    87.02357810   196.13490886
 H      6   4   3     1.907241168638    88.25930742   241.89935668
 H      7   3  17     1.946556377110    82.61424900   188.03692403
 H      8   2   1     1.869645195227    93.47782372   246.38640360

---------------------
BASIS SET INFORMATION
---------------------
There are 4 groups of distinct atoms

 Group   1 Type O   : 12s7p3d1f contracted to 6s4p3d1f pattern {621111/4111/111/1}
 Group   2 Type N   : 12s6p3d1f contracted to 6s3p3d1f pattern {621111/411/111/1}
 Group   3 Type C   : 12s6p3d1f contracted to 6s3p3d1f pattern {621111/411/111/1}
 Group   4 Type H   : 5s3p1d contracted to 3s3p1d pattern {311/111/1}

Atom   0O    basis set group =>   1
Atom   1O    basis set group =>   1
Atom   2O    basis set group =>   1
Atom   3O    basis set group =>   1
Atom   4N    basis set group =>   2
Atom   5N    basis set group =>   2
Atom   6N    basis set group =>   2
Atom   7N    basis set group =>   2
Atom   8C    basis set group =>   3
Atom   9C    basis set group =>   3
Atom  10C    basis set group =>   3
Atom  11C    basis set group =>   3
Atom  12C    basis set group =>   3
Atom  13C    basis set group =>   3
Atom  14C    basis set group =>   3
Atom  15C    basis set group =>   3
Atom  16C    basis set group =>   3
Atom  17C    basis set group =>   3
Atom  18H    basis set group =>   4
Atom  19H    basis set group =>   4
Atom  20H    basis set group =>   4
Atom  21H    basis set group =>   4
Atom  22H    basis set group =>   4
Atom  23H    basis set group =>   4
Atom  24H    basis set group =>   4
Atom  25H    basis set group =>   4
Atom  26H    basis set group =>   4
Atom  27H    basis set group =>   4
Atom  28H    basis set group =>   4
Atom  29H    basis set group =>   4
---------------------------------
AUXILIARY/J BASIS SET INFORMATION
---------------------------------
There are 4 groups of distinct atoms

 Group   1 Type O   : 12s5p4d2f1g contracted to 6s4p3d1f1g pattern {711111/2111/211/2/1}
 Group   2 Type N   : 12s5p4d2f1g contracted to 6s4p3d1f1g pattern {711111/2111/211/2/1}
 Group   3 Type C   : 12s5p4d2f1g contracted to 6s4p3d1f1g pattern {711111/2111/211/2/1}
 Group   4 Type H   : 5s2p1d contracted to 3s1p1d pattern {311/2/1}

Atom   0O    basis set group =>   1
Atom   1O    basis set group =>   1
Atom   2O    basis set group =>   1
Atom   3O    basis set group =>   1
Atom   4N    basis set group =>   2
Atom   5N    basis set group =>   2
Atom   6N    basis set group =>   2
Atom   7N    basis set group =>   2
Atom   8C    basis set group =>   3
Atom   9C    basis set group =>   3
Atom  10C    basis set group =>   3
Atom  11C    basis set group =>   3
Atom  12C    basis set group =>   3
Atom  13C    basis set group =>   3
Atom  14C    basis set group =>   3
Atom  15C    basis set group =>   3
Atom  16C    basis set group =>   3
Atom  17C    basis set group =>   3
Atom  18H    basis set group =>   4
Atom  19H    basis set group =>   4
Atom  20H    basis set group =>   4
Atom  21H    basis set group =>   4
Atom  22H    basis set group =>   4
Atom  23H    basis set group =>   4
Atom  24H    basis set group =>   4
Atom  25H    basis set group =>   4
Atom  26H    basis set group =>   4
Atom  27H    basis set group =>   4
Atom  28H    basis set group =>   4
Atom  29H    basis set group =>   4
[1741099249.248466] [ohm:776270:0]        ib_iface.c:1059 UCX  ERROR ibv_create_cq(cqe=256) failed: Connection timed out
[1741099249.269097] [ohm:776266:0]        ib_iface.c:1059 UCX  ERROR ibv_create_cq(cqe=256) failed: Connection timed out
[1741099249.279502] [ohm:776265:0]        ib_iface.c:1059 UCX  ERROR ibv_create_cq(cqe=256) failed: Connection timed out
[1741099249.294233] [ohm:776268:0]        ib_iface.c:1059 UCX  ERROR ibv_create_cq(cqe=256) failed: Connection timed out
[1741099249.357915] [ohm:776267:0]        ib_iface.c:1059 UCX  ERROR ibv_create_cq(cqe=256) failed: Connection timed out
[1741099249.365461] [ohm:776327:0]        ib_iface.c:1059 UCX  ERROR ibv_create_cq(cqe=256) failed: Connection timed out
[1741099249.368203] [ohm:776273:0]        ib_iface.c:1059 UCX  ERROR ibv_create_cq(cqe=256) failed: Connection timed out
[1741099249.374582] [ohm:776271:0]        ib_iface.c:1059 UCX  ERROR ibv_create_cq(cqe=256) failed: Connection timed out
[1741099249.375289] [ohm:776291:0]        ib_iface.c:1059 UCX  ERROR ibv_create_cq(cqe=256) failed: Connection timed out
[1741099249.379909] [ohm:776269:0]        ib_iface.c:1059 UCX  ERROR ibv_create_cq(cqe=256) failed: Connection timed out
[1741099249.380854] [ohm:776324:0]        ib_iface.c:1059 UCX  ERROR ibv_create_cq(cqe=256) failed: Connection timed out
[1741099249.399916] [ohm:776325:0]        ib_iface.c:1059 UCX  ERROR ibv_create_cq(cqe=256) failed: Connection timed out
[1741099249.421505] [ohm:776275:0]        ib_iface.c:1059 UCX  ERROR ibv_create_cq(cqe=256) failed: Connection timed out
[1741099249.423556] [ohm:776351:0]        ib_iface.c:1059 UCX  ERROR ibv_create_cq(cqe=256) failed: Connection timed out
[1741099249.436858] [ohm:776356:0]        ib_iface.c:1059 UCX  ERROR ibv_create_cq(cqe=256) failed: Connection timed out
[1741099249.443790] [ohm:776329:0]        ib_iface.c:1059 UCX  ERROR ibv_create_cq(cqe=256) failed: Connection timed out
[1741099249.446765] [ohm:776381:0]        ib_iface.c:1059 UCX  ERROR ibv_create_cq(cqe=256) failed: Connection timed out
[1741099249.449279] [ohm:776379:0]        ib_iface.c:1059 UCX  ERROR ibv_create_cq(cqe=256) failed: Connection timed out
[1741099249.450095] [ohm:776364:0]        ib_iface.c:1059 UCX  ERROR ibv_create_cq(cqe=256) failed: Connection timed out
[1741099249.465662] [ohm:776410:0]        ib_iface.c:1059 UCX  ERROR ibv_create_cq(cqe=256) failed: Connection timed out
[1741099249.477460] [ohm:776394:0]        ib_iface.c:1059 UCX  ERROR ibv_create_cq(cqe=256) failed: Connection timed out
[1741099249.489681] [ohm:776403:0]        ib_iface.c:1059 UCX  ERROR ibv_create_cq(cqe=256) failed: Connection timed out
[1741099249.493470] [ohm:776399:0]        ib_iface.c:1059 UCX  ERROR ibv_create_cq(cqe=256) failed: Connection timed out
[1741099249.499110] [ohm:776331:0]        ib_iface.c:1059 UCX  ERROR ibv_create_cq(cqe=256) failed: Connection timed out
[1741099249.509730] [ohm:776338:0]        ib_iface.c:1059 UCX  ERROR ibv_create_cq(cqe=256) failed: Connection timed out
[1741099249.512930] [ohm:776389:0]        ib_iface.c:1059 UCX  ERROR ibv_create_cq(cqe=256) failed: Connection timed out
[1741099249.521809] [ohm:776362:0]        ib_iface.c:1059 UCX  ERROR ibv_create_cq(cqe=256) failed: Connection timed out
[1741099249.525132] [ohm:776347:0]        ib_iface.c:1059 UCX  ERROR ibv_create_cq(cqe=256) failed: Connection timed out
[1741099249.525790] [ohm:776330:0]        ib_iface.c:1059 UCX  ERROR ibv_create_cq(cqe=256) failed: Connection timed out
[1741099249.526857] [ohm:776401:0]        ib_iface.c:1059 UCX  ERROR ibv_create_cq(cqe=256) failed: Connection timed out
[1741099249.540010] [ohm:776328:0]        ib_iface.c:1059 UCX  ERROR ibv_create_cq(cqe=256) failed: Connection timed out
[1741099249.541927] [ohm:776296:0]        ib_iface.c:1059 UCX  ERROR ibv_create_cq(cqe=256) failed: Connection timed out
[1741099249.546763] [ohm:776393:0]        ib_iface.c:1059 UCX  ERROR ibv_create_cq(cqe=256) failed: Connection timed out
[1741099249.549821] [ohm:776353:0]        ib_iface.c:1059 UCX  ERROR ibv_create_cq(cqe=256) failed: Connection timed out
[1741099249.581986] [ohm:776359:0]        ib_iface.c:1059 UCX  ERROR ibv_create_cq(cqe=256) failed: Connection timed out
[1741099249.583056] [ohm:776385:0]        ib_iface.c:1059 UCX  ERROR ibv_create_cq(cqe=256) failed: Connection timed out
[1741099249.585792] [ohm:776323:0]        ib_iface.c:1059 UCX  ERROR ibv_create_cq(cqe=256) failed: Connection timed out
[1741099249.588208] [ohm:776313:0]        ib_iface.c:1059 UCX  ERROR ibv_create_cq(cqe=256) failed: Connection timed out
[1741099249.588349] [ohm:776341:0]        ib_iface.c:1059 UCX  ERROR ibv_create_cq(cqe=256) failed: Connection timed out
[1741099249.590162] [ohm:776408:0]        ib_iface.c:1059 UCX  ERROR ibv_create_cq(cqe=256) failed: Connection timed out
[1741099249.591999] [ohm:776274:0]        ib_iface.c:1059 UCX  ERROR ibv_create_cq(cqe=256) failed: Connection timed out
[1741099249.592461] [ohm:776315:0]        ib_iface.c:1059 UCX  ERROR ibv_create_cq(cqe=256) failed: Connection timed out
[1741099249.593611] [ohm:776387:0]        ib_iface.c:1059 UCX  ERROR ibv_create_cq(cqe=256) failed: Connection timed out
[1741099249.609515] [ohm:776278:0]        ib_iface.c:1059 UCX  ERROR ibv_create_cq(cqe=256) failed: Connection timed out
[1741099249.614810] [ohm:776299:0]        ib_iface.c:1059 UCX  ERROR ibv_create_cq(cqe=256) failed: Connection timed out
[1741099249.624140] [ohm:776297:0]        ib_iface.c:1059 UCX  ERROR ibv_create_cq(cqe=256) failed: Connection timed out
[1741099249.628844] [ohm:776277:0]        ib_iface.c:1059 UCX  ERROR ibv_create_cq(cqe=256) failed: Connection timed out
[1741099249.630000] [ohm:776276:0]        ib_iface.c:1059 UCX  ERROR ibv_create_cq(cqe=256) failed: Connection timed out
[1741099249.632043] [ohm:776306:0]        ib_iface.c:1059 UCX  ERROR ibv_create_cq(cqe=256) failed: Connection timed out
[1741099249.640202] [ohm:776322:0]        ib_iface.c:1059 UCX  ERROR ibv_create_cq(cqe=256) failed: Connection timed out
[1741099249.641406] [ohm:776326:0]        ib_iface.c:1059 UCX  ERROR ibv_create_cq(cqe=256) failed: Connection timed out
[1741099249.645492] [ohm:776272:0]        ib_iface.c:1059 UCX  ERROR ibv_create_cq(cqe=256) failed: Connection timed out
[1741099249.645837] [ohm:776309:0]        ib_iface.c:1059 UCX  ERROR ibv_create_cq(cqe=256) failed: Connection timed out
[1741099249.647434] [ohm:776294:0]        ib_iface.c:1059 UCX  ERROR ibv_create_cq(cqe=256) failed: Connection timed out
[1741099249.647621] [ohm:776333:0]        ib_iface.c:1059 UCX  ERROR ibv_create_cq(cqe=256) failed: Connection timed out
[1741099249.649852] [ohm:776317:0]        ib_iface.c:1059 UCX  ERROR ibv_create_cq(cqe=256) failed: Connection timed out
[1741099249.652627] [ohm:776415:0]        ib_iface.c:1059 UCX  ERROR ibv_create_cq(cqe=256) failed: Connection timed out
[1741099249.653954] [ohm:776320:0]        ib_iface.c:1059 UCX  ERROR ibv_create_cq(cqe=256) failed: Connection timed out
[1741099249.654173] [ohm:776292:0]        ib_iface.c:1059 UCX  ERROR ibv_create_cq(cqe=256) failed: Connection timed out
[1741099249.654557] [ohm:776369:0]        ib_iface.c:1059 UCX  ERROR ibv_create_cq(cqe=256) failed: Connection timed out
[1741099249.654763] [ohm:776293:0]        ib_iface.c:1059 UCX  ERROR ibv_create_cq(cqe=256) failed: Connection timed out
[1741099249.655889] [ohm:776373:0]        ib_iface.c:1059 UCX  ERROR ibv_create_cq(cqe=256) failed: Connection timed out
[1741099249.656057] [ohm:776302:0]        ib_iface.c:1059 UCX  ERROR ibv_create_cq(cqe=256) failed: Connection timed out
[1741099249.656629] [ohm:776295:0]        ib_iface.c:1059 UCX  ERROR ibv_create_cq(cqe=256) failed: Connection timed out


           ************************************************************
           *        Program running with 64 parallel MPI-processes    *
           *              working on a common directory               *
           ************************************************************
------------------------------------------------------------------------------
                             ORCA STARTUP CALCULATIONS
                           -- RI-GTO INTEGRALS CHOSEN --
------------------------------------------------------------------------------
------------------------------------------------------------------------------
                   ___                                                        
                  /   \      - P O W E R E D   B Y -                         
                 /     \                                                     
                 |  |  |   _    _      __       _____    __    __             
                 |  |  |  | |  | |    /  \     |  _  \  |  |  /  |          
                  \  \/   | |  | |   /    \    | | | |  |  | /  /          
                 / \  \   | |__| |  /  /\  \   | |_| |  |  |/  /          
                |  |  |   |  __  | /  /__\  \  |    /   |      \           
                |  |  |   | |  | | |   __   |  |    \   |  |\   \          
                \     /   | |  | | |  |  |  |  | |\  \  |  | \   \       
                 \___/    |_|  |_| |__|  |__|  |_| \__\ |__|  \__/        
                                                                              
                      - O R C A' S   B I G   F R I E N D -                    
                                      &                                       
                       - I N T E G R A L  F E E D E R -                       
                                                                              
 v1 FN, 2020, v2 2021, v3 2022-2024                                           
------------------------------------------------------------------------------


----------------------
SHARK INTEGRAL PACKAGE
----------------------

Number of atoms                             ...     30
Number of basis functions                   ...    882
Number of shells                            ...    322
Maximum angular momentum                    ...      3
Integral batch strategy                     ... SHARK/LIBINT Hybrid
RI-J (if used) integral strategy            ... SPLIT-RIJ (Revised 2003 algorithm where possible)
Printlevel                                  ...      1
Contraction scheme used                     ... SEGMENTED contraction
Prescreening option                         ... SCHWARTZ
   Thresh                                   ... 2.500e-11
   Tcut                                     ... 2.500e-12
   Tpresel                                  ... 2.500e-12 
Coulomb Range Separation                    ... NOT USED
Exchange Range Separation                   ... Long Range
   Mu parameter                             ... 3.000e-01
   Scaling (regular/separated)              ... 1.500e-01 8.500e-01
Multipole approximations                    ... NOT USED
Finite Nucleus Model                        ... NOT USED
CABS basis                                  ... NOT available
Auxiliary Coulomb fitting basis             ... AVAILABLE
   # of basis functions in Aux-J            ...   1014
   # of shells in Aux-J                     ...    330
   Maximum angular momentum in Aux-J        ...      4
Auxiliary J/K fitting basis                 ... NOT available
Auxiliary Correlation fitting basis         ... NOT available
Auxiliary 'external' fitting basis          ... NOT available

Checking pre-screening integrals            ... done (  0.0 sec) Dimension = 322
Check shell pair data                       ... done (  0.0 sec)
Shell pair information
Shell pair cut-off parameter TPreSel        ...   2.5e-12
Total number of shell pairs                 ...     52003
Shell pairs after pre-screening             ...     44894
Total number of primitive shell pairs       ...    129718
Primitive shell pairs kept                  ...     83728
          la=0 lb=0:   8695 shell pairs
          la=1 lb=0:  11885 shell pairs
          la=1 lb=1:   4105 shell pairs
          la=2 lb=0:   8070 shell pairs
          la=2 lb=1:   5595 shell pairs
          la=2 lb=2:   1922 shell pairs
          la=3 lb=0:   2041 shell pairs
          la=3 lb=1:   1457 shell pairs
          la=3 lb=2:    986 shell pairs
          la=3 lb=3:    138 shell pairs

Calculating one electron integrals          ... done (  0.2 sec)
Calculating RI/J V-Matrix + Cholesky decomp.... done (  0.1 sec)
Calculating Nuclear repulsion               ... done (  0.0 sec) ENN=   1431.235387176271 Eh

Diagonalization of the overlap matrix:
Smallest eigenvalue                        ... 5.443e-07
Time for diagonalization                   ...    0.127 sec
Threshold for overlap eigenvalues          ... 1.000e-07
Number of eigenvalues below threshold      ... 0

IMPORTANT:
Smallest eigenvalue of S below the DiffSThresh (1.000e-06) while
Thresh>1e-12 and/or TCut>1e-13! In order to avoid SCF convergence issues,
Thresh will be set to at least 1e-12 and TCut to at least 1e-13.
This can be turned off by adding %SCF DiffSThresh -1 END to the input.

Time for construction of square roots      ...    0.132 sec
Total time needed                          ...    0.272 sec

-------------------
DFT GRID GENERATION
-------------------

General Integration Accuracy     IntAcc      ... 4.388
Radial Grid Type                 RadialGrid  ... OptM3 with GC (2021)
Angular Grid (max. ang.)         AngularGrid ... 4 (Lebedev-302)
Angular grid pruning method      GridPruning ... 4 (adaptive)
Weight generation scheme         WeightScheme... mBecke (2022)
Basis function cutoff            BFCut       ... 1.0000e-11
Integration weight cutoff        WCut        ... 1.0000e-14
Partially contracted basis set               ... off
Rotationally invariant grid construction     ... off
Angular grids for H and He will be reduced by one unit
Diffuse basis detected: some atoms will have their outermost
                        angular grid increased by 1.

Total number of grid points                  ...   152071
Total number of batches                      ...     2393
Average number of points per batch           ...       63
Average number of grid points per atom       ...     5069

--------------------
COSX GRID GENERATION
--------------------

GRIDX 1
-------
General Integration Accuracy     IntAcc      ... 3.816
Radial Grid Type                 RadialGrid  ... OptM3 with GC (2021)
Angular Grid (max. ang.)         AngularGrid ... 1 (Lebedev-50)
Angular grid pruning method      GridPruning ... 4 (adaptive)
Weight generation scheme         WeightScheme... mBecke (2022)
Basis function cutoff            BFCut       ... 1.0000e-11
Integration weight cutoff        WCut        ... 1.0000e-14
Partially contracted basis set               ... on
Rotationally invariant grid construction     ... off
Angular grids for H and He will be reduced by one unit
Diffuse basis detected: some atoms will have their outermost
                        angular grid increased by 1.

Total number of grid points                  ...    19042
Total number of batches                      ...      166
Average number of points per batch           ...      114
Average number of grid points per atom       ...      635
UseSFitting                                  ... on

GRIDX 2
-------
General Integration Accuracy     IntAcc      ... 4.020
Radial Grid Type                 RadialGrid  ... OptM3 with GC (2021)
Angular Grid (max. ang.)         AngularGrid ... 2 (Lebedev-110)
Angular grid pruning method      GridPruning ... 4 (adaptive)
Weight generation scheme         WeightScheme... mBecke (2022)
Basis function cutoff            BFCut       ... 1.0000e-11
Integration weight cutoff        WCut        ... 1.0000e-14
Partially contracted basis set               ... on
Rotationally invariant grid construction     ... off
Angular grids for H and He will be reduced by one unit
Diffuse basis detected: some atoms will have their outermost
                        angular grid increased by 1.

Total number of grid points                  ...    45951
Total number of batches                      ...      375
Average number of points per batch           ...      122
Average number of grid points per atom       ...     1532
UseSFitting                                  ... on

GRIDX 3
-------
General Integration Accuracy     IntAcc      ... 4.338
Radial Grid Type                 RadialGrid  ... OptM3 with GC (2021)
Angular Grid (max. ang.)         AngularGrid ... 3 (Lebedev-194)
Angular grid pruning method      GridPruning ... 4 (adaptive)
Weight generation scheme         WeightScheme... mBecke (2022)
Basis function cutoff            BFCut       ... 1.0000e-11
Integration weight cutoff        WCut        ... 1.0000e-14
Partially contracted basis set               ... on
Rotationally invariant grid construction     ... off
Angular grids for H and He will be reduced by one unit
Diffuse basis detected: some atoms will have their outermost
                        angular grid increased by 1.

Total number of grid points                  ...   101102
Total number of batches                      ...      805
Average number of points per batch           ...      125
Average number of grid points per atom       ...     3370
UseSFitting                                  ... on
Initializing property integral containers    ... done (  0.0 sec)

SHARK setup successfully completed in   4.1 seconds

Maximum memory used throughout the entire STARTUP-calculation: 79.9 MB
[1741099255.687215] [ohm:776617:0]        ib_iface.c:1059 UCX  ERROR ibv_create_cq(cqe=256) failed: Connection timed out
[1741099255.697762] [ohm:776620:0]        ib_iface.c:1059 UCX  ERROR ibv_create_cq(cqe=256) failed: Connection timed out
[1741099255.705656] [ohm:776619:0]        ib_iface.c:1059 UCX  ERROR ibv_create_cq(cqe=256) failed: Connection timed out
[1741099255.711966] [ohm:776622:0]        ib_iface.c:1059 UCX  ERROR ibv_create_cq(cqe=256) failed: Connection timed out
[1741099255.719647] [ohm:776631:0]        ib_iface.c:1059 UCX  ERROR ibv_create_cq(cqe=256) failed: Connection timed out
[1741099255.722974] [ohm:776625:0]        ib_iface.c:1059 UCX  ERROR ibv_create_cq(cqe=256) failed: Connection timed out
[1741099255.727191] [ohm:776623:0]        ib_iface.c:1059 UCX  ERROR ibv_create_cq(cqe=256) failed: Connection timed out
[1741099255.728401] [ohm:776618:0]        ib_iface.c:1059 UCX  ERROR ibv_create_cq(cqe=256) failed: Connection timed out
[1741099255.761717] [ohm:776627:0]        ib_iface.c:1059 UCX  ERROR ibv_create_cq(cqe=256) failed: Connection timed out
[1741099255.784966] [ohm:776621:0]        ib_iface.c:1059 UCX  ERROR ibv_create_cq(cqe=256) failed: Connection timed out
[1741099255.787860] [ohm:776639:0]        ib_iface.c:1059 UCX  ERROR ibv_create_cq(cqe=256) failed: Connection timed out
[1741099255.792081] [ohm:776649:0]        ib_iface.c:1059 UCX  ERROR ibv_create_cq(cqe=256) failed: Connection timed out
[1741099255.794174] [ohm:776626:0]        ib_iface.c:1059 UCX  ERROR ibv_create_cq(cqe=256) failed: Connection timed out
[1741099255.795786] [ohm:776647:0]        ib_iface.c:1059 UCX  ERROR ibv_create_cq(cqe=256) failed: Connection timed out
[1741099255.800661] [ohm:776646:0]        ib_iface.c:1059 UCX  ERROR ibv_create_cq(cqe=256) failed: Connection timed out
[1741099255.804009] [ohm:776637:0]        ib_iface.c:1059 UCX  ERROR ibv_create_cq(cqe=256) failed: Connection timed out
[1741099255.826625] [ohm:776640:0]        ib_iface.c:1059 UCX  ERROR ibv_create_cq(cqe=256) failed: Connection timed out
[1741099255.856038] [ohm:776644:0]        ib_iface.c:1059 UCX  ERROR ibv_create_cq(cqe=256) failed: Connection timed out
[1741099255.861510] [ohm:776643:0]        ib_iface.c:1059 UCX  ERROR ibv_create_cq(cqe=256) failed: Connection timed out
[1741099255.875100] [ohm:776645:0]        ib_iface.c:1059 UCX  ERROR ibv_create_cq(cqe=256) failed: Connection timed out
[1741099255.878611] [ohm:776672:0]        ib_iface.c:1059 UCX  ERROR ibv_create_cq(cqe=256) failed: Connection timed out
[1741099255.883889] [ohm:776638:0]        ib_iface.c:1059 UCX  ERROR ibv_create_cq(cqe=256) failed: Connection timed out
[1741099255.899900] [ohm:776679:0]        ib_iface.c:1059 UCX  ERROR ibv_create_cq(cqe=256) failed: Connection timed out
[1741099255.899951] [ohm:776630:0]        ib_iface.c:1059 UCX  ERROR ibv_create_cq(cqe=256) failed: Connection timed out
[1741099255.904376] [ohm:776636:0]        ib_iface.c:1059 UCX  ERROR ibv_create_cq(cqe=256) failed: Connection timed out
[1741099255.905143] [ohm:776628:0]        ib_iface.c:1059 UCX  ERROR ibv_create_cq(cqe=256) failed: Connection timed out
[1741099255.914799] [ohm:776656:0]        ib_iface.c:1059 UCX  ERROR ibv_create_cq(cqe=256) failed: Connection timed out
[1741099255.920065] [ohm:776668:0]        ib_iface.c:1059 UCX  ERROR ibv_create_cq(cqe=256) failed: Connection timed out
[1741099255.926194] [ohm:776713:0]        ib_iface.c:1059 UCX  ERROR ibv_create_cq(cqe=256) failed: Connection timed out
[1741099255.929623] [ohm:776717:0]        ib_iface.c:1059 UCX  ERROR ibv_create_cq(cqe=256) failed: Connection timed out
[1741099255.949181] [ohm:776684:0]        ib_iface.c:1059 UCX  ERROR ibv_create_cq(cqe=256) failed: Connection timed out
[1741099255.950064] [ohm:776728:0]        ib_iface.c:1059 UCX  ERROR ibv_create_cq(cqe=256) failed: Connection timed out
[1741099255.951440] [ohm:776706:0]        ib_iface.c:1059 UCX  ERROR ibv_create_cq(cqe=256) failed: Connection timed out
[1741099255.955289] [ohm:776674:0]        ib_iface.c:1059 UCX  ERROR ibv_create_cq(cqe=256) failed: Connection timed out
[1741099255.955916] [ohm:776634:0]        ib_iface.c:1059 UCX  ERROR ibv_create_cq(cqe=256) failed: Connection timed out
[1741099255.960787] [ohm:776734:0]        ib_iface.c:1059 UCX  ERROR ibv_create_cq(cqe=256) failed: Connection timed out
[1741099255.960867] [ohm:776698:0]        ib_iface.c:1059 UCX  ERROR ibv_create_cq(cqe=256) failed: Connection timed out
[1741099255.964665] [ohm:776746:0]        ib_iface.c:1059 UCX  ERROR ibv_create_cq(cqe=256) failed: Connection timed out
[1741099255.970588] [ohm:776723:0]        ib_iface.c:1059 UCX  ERROR ibv_create_cq(cqe=256) failed: Connection timed out
[1741099255.973808] [ohm:776665:0]        ib_iface.c:1059 UCX  ERROR ibv_create_cq(cqe=256) failed: Connection timed out
[1741099255.983510] [ohm:776753:0]        ib_iface.c:1059 UCX  ERROR ibv_create_cq(cqe=256) failed: Connection timed out
[1741099255.984226] [ohm:776652:0]        ib_iface.c:1059 UCX  ERROR ibv_create_cq(cqe=256) failed: Connection timed out
[1741099255.987346] [ohm:776708:0]        ib_iface.c:1059 UCX  ERROR ibv_create_cq(cqe=256) failed: Connection timed out
[1741099255.988906] [ohm:776701:0]        ib_iface.c:1059 UCX  ERROR ibv_create_cq(cqe=256) failed: Connection timed out
[1741099255.989214] [ohm:776725:0]        ib_iface.c:1059 UCX  ERROR ibv_create_cq(cqe=256) failed: Connection timed out
[1741099256.001671] [ohm:776694:0]        ib_iface.c:1059 UCX  ERROR ibv_create_cq(cqe=256) failed: Connection timed out
[1741099256.001814] [ohm:776641:0]        ib_iface.c:1059 UCX  ERROR ibv_create_cq(cqe=256) failed: Connection timed out
[1741099256.002936] [ohm:776748:0]        ib_iface.c:1059 UCX  ERROR ibv_create_cq(cqe=256) failed: Connection timed out
[1741099256.004461] [ohm:776624:0]        ib_iface.c:1059 UCX  ERROR ibv_create_cq(cqe=256) failed: Connection timed out
[1741099256.006842] [ohm:776686:0]        ib_iface.c:1059 UCX  ERROR ibv_create_cq(cqe=256) failed: Connection timed out
[1741099256.008529] [ohm:776739:0]        ib_iface.c:1059 UCX  ERROR ibv_create_cq(cqe=256) failed: Connection timed out
[1741099256.009189] [ohm:776733:0]        ib_iface.c:1059 UCX  ERROR ibv_create_cq(cqe=256) failed: Connection timed out
[1741099256.010323] [ohm:776759:0]        ib_iface.c:1059 UCX  ERROR ibv_create_cq(cqe=256) failed: Connection timed out
[1741099256.010618] [ohm:776642:0]        ib_iface.c:1059 UCX  ERROR ibv_create_cq(cqe=256) failed: Connection timed out
[1741099256.013273] [ohm:776661:0]        ib_iface.c:1059 UCX  ERROR ibv_create_cq(cqe=256) failed: Connection timed out
[1741099256.013875] [ohm:776692:0]        ib_iface.c:1059 UCX  ERROR ibv_create_cq(cqe=256) failed: Connection timed out
[1741099256.014676] [ohm:776635:0]        ib_iface.c:1059 UCX  ERROR ibv_create_cq(cqe=256) failed: Connection timed out
[1741099256.017551] [ohm:776719:0]        ib_iface.c:1059 UCX  ERROR ibv_create_cq(cqe=256) failed: Connection timed out
[1741099256.020889] [ohm:776632:0]        ib_iface.c:1059 UCX  ERROR ibv_create_cq(cqe=256) failed: Connection timed out
[1741099256.021476] [ohm:776754:0]        ib_iface.c:1059 UCX  ERROR ibv_create_cq(cqe=256) failed: Connection timed out
[1741099256.021662] [ohm:776633:0]        ib_iface.c:1059 UCX  ERROR ibv_create_cq(cqe=256) failed: Connection timed out
[1741099256.023580] [ohm:776712:0]        ib_iface.c:1059 UCX  ERROR ibv_create_cq(cqe=256) failed: Connection timed out
[1741099256.026942] [ohm:776629:0]        ib_iface.c:1059 UCX  ERROR ibv_create_cq(cqe=256) failed: Connection timed out
[1741099256.027323] [ohm:776743:0]        ib_iface.c:1059 UCX  ERROR ibv_create_cq(cqe=256) failed: Connection timed out


           ************************************************************
           *        Program running with 64 parallel MPI-processes    *
           *              working on a common directory               *
           ************************************************************
-------------------------------------------------------------------------------
                                 ORCA GUESS
                   Start orbitals & Density for SCF / CASSCF
-------------------------------------------------------------------------------

------------
SCF SETTINGS
------------
Hamiltonian:
 Density Functional     Method          .... DFT(GTOs)
  Functional kind                       .... Exchange-Correlation
  Functional name                       .... wB97M-V exchange-correlation functional
  Functional family                     .... Hybrid MGGA
  Functional refs                              
    [ 0] N. Mardirossian and M. Head-Gordon.,  J. Chem. Phys. 144, 214110 (2016), doi: 10.1063/1.4952647
  Fraction of HF Exchange (short range) .... 0.1500
  Fraction of HF Exchange (long range)  .... 1.0000
  Range separation parameter mu         .... 0.3000
  Functional external parameters        .... 17
    Parameter  0 _cx00      =  8.500000e-01 : u^00 coefficient for exchange
    Parameter  1 _cx01      =  1.007000e+00 : u^01 coefficient for exchange
    Parameter  2 _cx10      =  2.590000e-01 : u^10 coefficient for exchange
    Parameter  3 _css00     =  4.430000e-01 : u^00 coefficient for same-spin correlation
    Parameter  4 _css04     = -1.437000e+00 : u^04 coefficient for same-spin correlation
    Parameter  5 _css10     = -4.535000e+00 : u^10 coefficient for same-spin correlation
    Parameter  6 _css20     = -3.390000e+00 : u^20 coefficient for same-spin correlation
    Parameter  7 _css43     =  4.278000e+00 : u^43 coefficient for same-spin correlation
    Parameter  8 _cos00     =  1.000000e+00 : u^00 coefficient for opposite-spin correlation
    Parameter  9 _cos10     =  1.358000e+00 : u^10 coefficient for opposite-spin correlation
    Parameter 10 _cos20     =  2.924000e+00 : u^20 coefficient for opposite-spin correlation
    Parameter 11 _cos21     = -8.812000e+00 : u^21 coefficient for opposite-spin correlation
    Parameter 12 _cos60     = -1.390000e+00 : u^60 coefficient for opposite-spin correlation
    Parameter 13 _cos61     =  9.142000e+00 : u^61 coefficient for opposite-spin correlation
    Parameter 14 _alpha     =  1.000000e+00 : fraction of HF exchange
    Parameter 15 _beta      = -8.500000e-01 : fraction of short-range exchange
    Parameter 16 _omega     =  3.000000e-01 : range-separation constant
 Long-range corrected/Screened/Range-Separated Hybrid DFT is turned on
   Amount of maximum screened exact exchange              ....  0.850000
   Range separation parameter mu (erf(mu*r12)/r12)        ....  0.300000
 RI-approximation to the Coulomb term is turned on
   Number of AuxJ basis functions       .... 1014
   RIJ-COSX (HFX calculated with COS-X)).... on


General Settings:
 Integral files         IntName         .... orca
 Hartree-Fock type      HFTyp           .... UHF
 Total Charge           Charge          ....    0
 Multiplicity           Mult            ....    3
 Number of Electrons    NEL             ....  132
 Basis Dimension        Dim             ....  882
 Nuclear Repulsion      ENuc            ....   1431.2353871763 Eh

Convergence Acceleration:
 AO-DIIS                CNVDIIS         .... on
   Start iteration      DIISMaxIt       ....    12
   Startup error        DIISStart       ....  0.200000
   # of expansion vecs  DIISMaxEq       ....     5
   Bias factor          DIISBfac        ....   1.050
   Max. coefficient     DIISMaxC        ....  10.000
 MO-DIIS                CNVKDIIS        .... off
 Trust-Rad. Augm. Hess. CNVTRAH         .... auto
   Auto Start mean grad. ratio tolernc. ....  1.125000
   Auto Start start iteration           ....    50
   Auto Start num. interpolation iter.  ....    10
   Max. Number of Micro iterations      ....    24
   Max. Number of Macro iterations      .... Maxiter - #DIIS iter
   Number of Davidson start vectors     ....     2
   Converg. threshold    (grad. norm)   ....   1.000e-05
   Grad. Scal. Fac. for Micro threshold ....   0.100
   Minimum threshold for Micro iter.    ....   1.000e-02
   NR start threshold (gradient norm)   ....   1.000e-04
   Initial trust radius                 ....   0.400
   Minimum AH scaling param. (alpha)    ....   1.000
   Maximum AH scaling param. (alpha)    .... 1000.000
   Quad. conv. algorithm                .... NR
   White noise on init. David. guess    .... on
   Maximum white noise                  ....   0.010
   Pseudo random numbers                .... off
   Inactive MOs                         .... canonical
   Orbital update algorithm             .... Taylor
   Preconditioner                       .... Diag
   Full preconditioner red. dimension   ....   250
 SOSCF                  CNVSOSCF        .... on
   Start iteration      SOSCFMaxIt      ....   150
   Startup grad/error   SOSCFStart      ....  0.003300
   Hessian update       SOSCFHessUp     .... L-BFGS
 Level Shifting         CNVShift        .... on
   Level shift para.    LevelShift      ....    0.2500
   Turn off err/grad.   ShiftErr        ....    0.0010
 Zerner damping         CNVZerner       .... off
 Static damping         CNVDamp         .... on
   Fraction old density DampFac         ....    0.7000
   Max. Damping (<1)    DampMax         ....    0.9800
   Min. Damping (>=0)   DampMin         ....    0.0000
   Turn off err/grad.   DampErr         ....    0.1000

SCF Procedure:
 Maximum # iterations   MaxIter         ....   125
 SCF integral mode      SCFMode         .... Direct
   Integral package                     .... SHARK and LIBINT hybrid scheme
 Reset frequency        DirectResetFreq ....    20
 Integral Threshold     Thresh          ....  1.000e-12 Eh
 Primitive CutOff       TCut            ....  1.000e-13 Eh

Convergence Tolerance:
 Convergence Check Mode ConvCheckMode   .... Total+1el-Energy
 Convergence forced     ConvForced      .... 1
 Energy Change          TolE            ....  1.000e-08 Eh
 1-El. energy change                    ....  1.000e-05 Eh
 Orbital Gradient       TolG            ....  1.000e-05
 Orbital Rotation angle TolX            ....  1.000e-05
 DIIS Error             TolErr          ....  5.000e-07

------------------------------
INITIAL GUESS: MODEL POTENTIAL
------------------------------
Loading Hartree-Fock densities                     ... done
Calculating cut-offs                               ... done
Initializing the effective Hamiltonian             ... done
Setting up the integral package (SHARK)            ... done
Starting the Coulomb interaction                   ... done (   0.1 sec)
Making the grid                                    ... done (   0.3 sec)
Mapping shells                                     ... done
Starting the XC term evaluation                    ... done (   0.1 sec)
  promolecular density results
     # of electrons  =    131.987849307
     EX              =   -113.524582678
     EC              =     -4.487932537
     EX+EC           =   -118.012515214
Transforming the Hamiltonian                       ... done (   0.1 sec)
Diagonalizing the Hamiltonian                      ... done (   0.1 sec)
Back transforming the eigenvectors                 ... done (   0.1 sec)
Now organizing SCF variables                       ... done
                      ------------------
                      INITIAL GUESS DONE (   1.2 sec)
                      ------------------
             **** ENERGY FILE WAS UPDATED (orca.en.tmp) ****
Finished Guess after   3.7 sec
Maximum memory used throughout the entire GUESS-calculation: 72.5 MB
[1741099259.964529] [ohm:776970:0]        ib_iface.c:1059 UCX  ERROR ibv_create_cq(cqe=256) failed: Connection timed out
[1741099259.969852] [ohm:776978:0]        ib_iface.c:1059 UCX  ERROR ibv_create_cq(cqe=256) failed: Connection timed out
[1741099259.979941] [ohm:776968:0]        ib_iface.c:1059 UCX  ERROR ibv_create_cq(cqe=256) failed: Connection timed out
[1741099259.987756] [ohm:776971:0]        ib_iface.c:1059 UCX  ERROR ibv_create_cq(cqe=256) failed: Connection timed out
[1741099259.995142] [ohm:776969:0]        ib_iface.c:1059 UCX  ERROR ibv_create_cq(cqe=256) failed: Connection timed out
[1741099259.998759] [ohm:776972:0]        ib_iface.c:1059 UCX  ERROR ibv_create_cq(cqe=256) failed: Connection timed out
[1741099259.999735] [ohm:776967:0]        ib_iface.c:1059 UCX  ERROR ibv_create_cq(cqe=256) failed: Connection timed out
[1741099260.022948] [ohm:776974:0]        ib_iface.c:1059 UCX  ERROR ibv_create_cq(cqe=256) failed: Connection timed out
[1741099260.033520] [ohm:776997:0]        ib_iface.c:1059 UCX  ERROR ibv_create_cq(cqe=256) failed: Connection timed out
[1741099260.073473] [ohm:777032:0]        ib_iface.c:1059 UCX  ERROR ibv_create_cq(cqe=256) failed: Connection timed out
[1741099260.076913] [ohm:777004:0]        ib_iface.c:1059 UCX  ERROR ibv_create_cq(cqe=256) failed: Connection timed out
[1741099260.086203] [ohm:777020:0]        ib_iface.c:1059 UCX  ERROR ibv_create_cq(cqe=256) failed: Connection timed out
[1741099260.091364] [ohm:777027:0]        ib_iface.c:1059 UCX  ERROR ibv_create_cq(cqe=256) failed: Connection timed out
[1741099260.103290] [ohm:777005:0]        ib_iface.c:1059 UCX  ERROR ibv_create_cq(cqe=256) failed: Connection timed out
[1741099260.119068] [ohm:776996:0]        ib_iface.c:1059 UCX  ERROR ibv_create_cq(cqe=256) failed: Connection timed out
[1741099260.124783] [ohm:776990:0]        ib_iface.c:1059 UCX  ERROR ibv_create_cq(cqe=256) failed: Connection timed out
[1741099260.145544] [ohm:777029:0]        ib_iface.c:1059 UCX  ERROR ibv_create_cq(cqe=256) failed: Connection timed out
[1741099260.151092] [ohm:776966:0]        ib_iface.c:1059 UCX  ERROR ibv_create_cq(cqe=256) failed: Connection timed out
[1741099260.151218] [ohm:777035:0]        ib_iface.c:1059 UCX  ERROR ibv_create_cq(cqe=256) failed: Connection timed out
[1741099260.178924] [ohm:777111:0]        ib_iface.c:1059 UCX  ERROR ibv_create_cq(cqe=256) failed: Connection timed out
[1741099260.182962] [ohm:777013:0]        ib_iface.c:1059 UCX  ERROR ibv_create_cq(cqe=256) failed: Connection timed out
[1741099260.183357] [ohm:776977:0]        ib_iface.c:1059 UCX  ERROR ibv_create_cq(cqe=256) failed: Connection timed out
[1741099260.184101] [ohm:777011:0]        ib_iface.c:1059 UCX  ERROR ibv_create_cq(cqe=256) failed: Connection timed out
[1741099260.185786] [ohm:776975:0]        ib_iface.c:1059 UCX  ERROR ibv_create_cq(cqe=256) failed: Connection timed out
[1741099260.187764] [ohm:777024:0]        ib_iface.c:1059 UCX  ERROR ibv_create_cq(cqe=256) failed: Connection timed out
[1741099260.188283] [ohm:777078:0]        ib_iface.c:1059 UCX  ERROR ibv_create_cq(cqe=256) failed: Connection timed out
[1741099260.188815] [ohm:777075:0]        ib_iface.c:1059 UCX  ERROR ibv_create_cq(cqe=256) failed: Connection timed out
[1741099260.203109] [ohm:777092:0]        ib_iface.c:1059 UCX  ERROR ibv_create_cq(cqe=256) failed: Connection timed out
[1741099260.210297] [ohm:777050:0]        ib_iface.c:1059 UCX  ERROR ibv_create_cq(cqe=256) failed: Connection timed out
[1741099260.211597] [ohm:777103:0]        ib_iface.c:1059 UCX  ERROR ibv_create_cq(cqe=256) failed: Connection timed out
[1741099260.213259] [ohm:777065:0]        ib_iface.c:1059 UCX  ERROR ibv_create_cq(cqe=256) failed: Connection timed out
[1741099260.230079] [ohm:777080:0]        ib_iface.c:1059 UCX  ERROR ibv_create_cq(cqe=256) failed: Connection timed out
[1741099260.245758] [ohm:777028:0]        ib_iface.c:1059 UCX  ERROR ibv_create_cq(cqe=256) failed: Connection timed out
[1741099260.246588] [ohm:777061:0]        ib_iface.c:1059 UCX  ERROR ibv_create_cq(cqe=256) failed: Connection timed out
[1741099260.251544] [ohm:777094:0]        ib_iface.c:1059 UCX  ERROR ibv_create_cq(cqe=256) failed: Connection timed out
[1741099260.275155] [ohm:777022:0]        ib_iface.c:1059 UCX  ERROR ibv_create_cq(cqe=256) failed: Connection timed out
[1741099260.278624] [ohm:776991:0]        ib_iface.c:1059 UCX  ERROR ibv_create_cq(cqe=256) failed: Connection timed out
[1741099260.282394] [ohm:777085:0]        ib_iface.c:1059 UCX  ERROR ibv_create_cq(cqe=256) failed: Connection timed out
[1741099260.288443] [ohm:777097:0]        ib_iface.c:1059 UCX  ERROR ibv_create_cq(cqe=256) failed: Connection timed out
[1741099260.290819] [ohm:776976:0]        ib_iface.c:1059 UCX  ERROR ibv_create_cq(cqe=256) failed: Connection timed out
[1741099260.291459] [ohm:777041:0]        ib_iface.c:1059 UCX  ERROR ibv_create_cq(cqe=256) failed: Connection timed out
[1741099260.291413] [ohm:776989:0]        ib_iface.c:1059 UCX  ERROR ibv_create_cq(cqe=256) failed: Connection timed out
[1741099260.297281] [ohm:777057:0]        ib_iface.c:1059 UCX  ERROR ibv_create_cq(cqe=256) failed: Connection timed out
[1741099260.306016] [ohm:777108:0]        ib_iface.c:1059 UCX  ERROR ibv_create_cq(cqe=256) failed: Connection timed out
[1741099260.307093] [ohm:777025:0]        ib_iface.c:1059 UCX  ERROR ibv_create_cq(cqe=256) failed: Connection timed out
[1741099260.310217] [ohm:777101:0]        ib_iface.c:1059 UCX  ERROR ibv_create_cq(cqe=256) failed: Connection timed out
[1741099260.314838] [ohm:776993:0]        ib_iface.c:1059 UCX  ERROR ibv_create_cq(cqe=256) failed: Connection timed out
[1741099260.315941] [ohm:777059:0]        ib_iface.c:1059 UCX  ERROR ibv_create_cq(cqe=256) failed: Connection timed out
[1741099260.318993] [ohm:777087:0]        ib_iface.c:1059 UCX  ERROR ibv_create_cq(cqe=256) failed: Connection timed out
[1741099260.322926] [ohm:777026:0]        ib_iface.c:1059 UCX  ERROR ibv_create_cq(cqe=256) failed: Connection timed out
[1741099260.326589] [ohm:777068:0]        ib_iface.c:1059 UCX  ERROR ibv_create_cq(cqe=256) failed: Connection timed out
[1741099260.327690] [ohm:776999:0]        ib_iface.c:1059 UCX  ERROR ibv_create_cq(cqe=256) failed: Connection timed out
[1741099260.333232] [ohm:776973:0]        ib_iface.c:1059 UCX  ERROR ibv_create_cq(cqe=256) failed: Connection timed out
[1741099260.333866] [ohm:776987:0]        ib_iface.c:1059 UCX  ERROR ibv_create_cq(cqe=256) failed: Connection timed out
[1741099260.337665] [ohm:777047:0]        ib_iface.c:1059 UCX  ERROR ibv_create_cq(cqe=256) failed: Connection timed out
[1741099260.337708] [ohm:777023:0]        ib_iface.c:1059 UCX  ERROR ibv_create_cq(cqe=256) failed: Connection timed out
[1741099260.339066] [ohm:777002:0]        ib_iface.c:1059 UCX  ERROR ibv_create_cq(cqe=256) failed: Connection timed out
[1741099260.339042] [ohm:777089:0]        ib_iface.c:1059 UCX  ERROR ibv_create_cq(cqe=256) failed: Connection timed out
[1741099260.339188] [ohm:776992:0]        ib_iface.c:1059 UCX  ERROR ibv_create_cq(cqe=256) failed: Connection timed out
[1741099260.340209] [ohm:777015:0]        ib_iface.c:1059 UCX  ERROR ibv_create_cq(cqe=256) failed: Connection timed out
[1741099260.343316] [ohm:777054:0]        ib_iface.c:1059 UCX  ERROR ibv_create_cq(cqe=256) failed: Connection timed out
[1741099260.344210] [ohm:777040:0]        ib_iface.c:1059 UCX  ERROR ibv_create_cq(cqe=256) failed: Connection timed out
[1741099260.344245] [ohm:776988:0]        ib_iface.c:1059 UCX  ERROR ibv_create_cq(cqe=256) failed: Connection timed out
[1741099260.345241] [ohm:777070:0]        ib_iface.c:1059 UCX  ERROR ibv_create_cq(cqe=256) failed: Connection timed out


           ************************************************************
           *        Program running with 64 parallel MPI-processes    *
           *              working on a common directory               *
           ************************************************************

-------------------------------------------------------------------------------------------
                                      ORCA LEAN-SCF
                              memory conserving SCF solver
-------------------------------------------------------------------------------------------

----------------------------------------D-I-I-S--------------------------------------------
Iteration    Energy (Eh)           Delta-E    RMSDP     MaxDP     DIISErr   Damp  Time(sec)
-------------------------------------------------------------------------------------------
               ***  Starting incremental Fock matrix formation  ***
    1    -908.1160176665962354     0.00e+00  1.81e-03  4.04e-01  1.46e-01  0.700   7.8
    2    -908.3881747890163751    -2.72e-01  1.42e-03  2.72e-01  6.93e-02  0.700   6.6
                               ***Turning on AO-DIIS***
    3    -908.5077567234434355    -1.20e-01  9.88e-04  1.66e-01  2.73e-02  0.700   5.8
    4    -908.5812865006109860    -7.35e-02  2.26e-03  3.44e-01  1.80e-02  0.000   5.7
    5    -908.7464449781373332    -1.65e-01  2.49e-04  5.85e-02  3.72e-03  0.000   5.8
                              *** Initializing SOSCF ***
---------------------------------------S-O-S-C-F--------------------------------------
Iteration    Energy (Eh)           Delta-E    RMSDP     MaxDP     MaxGrad    Time(sec)
--------------------------------------------------------------------------------------
    6    -908.7477707337957327    -1.33e-03  1.29e-04  3.67e-02  1.88e-03     6.5
               *** Restarting incremental Fock matrix formation ***
    7    -908.7483658423302586    -5.95e-04  1.73e-04  3.01e-02  5.15e-03     7.3
    8    -908.7487534134538691    -3.88e-04  2.08e-04  5.74e-02  2.72e-03     6.6
    9    -908.7488870457505072    -1.34e-04  8.24e-05  8.66e-03  8.63e-04     6.6
   10    -908.7489540080819097    -6.70e-05  2.98e-05  8.99e-03  4.08e-04     6.4
   11    -908.7489638842771456    -9.88e-06  6.58e-06  5.72e-04  1.38e-04     6.2
   12    -908.7489657074843308    -1.82e-06  5.13e-06  8.60e-04  1.09e-04     6.1
   13    -908.7489667087920679    -1.00e-06  4.13e-06  6.31e-04  3.52e-05     6.0
   14    -908.7489668605480801    -1.52e-07  1.55e-06  2.70e-04  1.88e-05     6.0
   15    -908.7489669156643686    -5.51e-08  1.45e-06  1.89e-04  1.09e-05     5.7
   16    -908.7489669518972732    -3.62e-08  1.23e-06  2.92e-04  4.65e-06     5.7
   17    -908.7489669756300827    -2.37e-08  1.54e-06  3.45e-04  2.19e-06     5.5
                  *** Gradient check signals convergence ***

               *****************************************************
               *                     SUCCESS                       *
               *           SCF CONVERGED AFTER  17 CYCLES          *
               *****************************************************

Recomputing exchange energy using gridx3       ... done (    7.873 sec)
Old exchange energy                            :    -35.030393281 Eh
New exchange energy                            :    -35.030402874 Eh
Exchange energy change after final integration :     -0.000009593 Eh
Total energy after final integration           :   -908.748976568 Eh
             **** ENERGY FILE WAS UPDATED (orca.en.tmp) ****

----------------
TOTAL SCF ENERGY
----------------

Total Energy       :       -908.74897656848145 Eh          -24728.31682 eV

Components:
Nuclear Repulsion  :       1431.23538717627116 Eh           38945.89486 eV
Electronic Energy  :      -2339.98435415190124 Eh          -63674.21141 eV
One Electron Energy:      -4079.44890411347342 Eh         -111007.44819 eV
Two Electron Energy:       1739.46454996157217 Eh           47333.23678 eV

Virial components:
Potential Energy   :      -1814.35083070302289 Eh          -49370.99608 eV
Kinetic Energy     :        905.60185413454133 Eh           24642.67926 eV
Virial Ratio       :          2.00347517225100

DFT components:
N(Alpha)           :       66.999913340486 electrons
N(Beta)            :       64.999902863656 electrons
N(Total)           :      131.999816204143 electrons
E(XC)              :      -86.234202501993 Eh       

---------------
SCF CONVERGENCE
---------------

  Last Energy change         ...    2.3733e-08  Tolerance :   1.0000e-08
  Last MAX-Density change    ...    3.4527e-04  Tolerance :   1.0000e-07
  Last RMS-Density change    ...    1.5410e-06  Tolerance :   5.0000e-09
  Last DIIS Error            ...    1.8825e-03  Tolerance :   5.0000e-07
  Last Orbital Gradient      ...    2.1899e-06  Tolerance :   1.0000e-05
  Last Orbital Rotation      ...    1.0797e-05  Tolerance :   1.0000e-05


----------------------
UHF SPIN CONTAMINATION
----------------------

Warning: in a DFT calculation there is little theoretical justification to 
         calculate <S**2> as in Hartree-Fock theory. We will do it anyways
         but you should keep in mind that the values have only limited relevance

Expectation value of <S**2>     :     2.012381
Ideal value S*(S+1) for S=1.0   :     2.000000
Deviation                       :     0.012381

----------------
ORBITAL ENERGIES
----------------
                 SPIN UP ORBITALS
  NO   OCC          E(Eh)            E(eV) 
   0   1.0000     -19.343227      -526.3560 
   1   1.0000     -19.331775      -526.0444 
   2   1.0000     -19.321210      -525.7568 
   3   1.0000     -19.320779      -525.7451 
   4   1.0000     -14.570807      -396.4918 
   5   1.0000     -14.569156      -396.4469 
   6   1.0000     -14.563722      -396.2990 
   7   1.0000     -14.550590      -395.9417 
   8   1.0000     -10.510234      -285.9980 
   9   1.0000     -10.506088      -285.8852 
  10   1.0000     -10.495248      -285.5902 
  11   1.0000     -10.475660      -285.0572 
  12   1.0000     -10.460657      -284.6489 
  13   1.0000     -10.456654      -284.5400 
  14   1.0000     -10.421822      -283.5922 
  15   1.0000     -10.415978      -283.4332 
  16   1.0000     -10.381668      -282.4995 
  17   1.0000     -10.358349      -281.8650 
  18   1.0000      -1.217862       -33.1397 
  19   1.0000      -1.212205       -32.9858 
  20   1.0000      -1.199274       -32.6339 
  21   1.0000      -1.191668       -32.4269 
  22   1.0000      -1.113212       -30.2921 
  23   1.0000      -1.092663       -29.7329 
  24   1.0000      -1.062107       -28.9014 
  25   1.0000      -1.049555       -28.5599 
  26   1.0000      -0.989467       -26.9248 
  27   1.0000      -0.965118       -26.2622 
  28   1.0000      -0.893685       -24.3184 
  29   1.0000      -0.847776       -23.0692 
  30   1.0000      -0.826616       -22.4934 
  31   1.0000      -0.803702       -21.8698 
  32   1.0000      -0.784448       -21.3459 
  33   1.0000      -0.777377       -21.1535 
  34   1.0000      -0.700450       -19.0602 
  35   1.0000      -0.694594       -18.9009 
  36   1.0000      -0.690824       -18.7983 
  37   1.0000      -0.675580       -18.3835 
  38   1.0000      -0.652738       -17.7619 
  39   1.0000      -0.643034       -17.4978 
  40   1.0000      -0.623647       -16.9703 
  41   1.0000      -0.604202       -16.4412 
  42   1.0000      -0.595190       -16.1960 
  43   1.0000      -0.584297       -15.8995 
  44   1.0000      -0.576426       -15.6854 
  45   1.0000      -0.573621       -15.6090 
  46   1.0000      -0.569722       -15.5029 
  47   1.0000      -0.566909       -15.4264 
  48   1.0000      -0.563612       -15.3367 
  49   1.0000      -0.559692       -15.2300 
  50   1.0000      -0.551720       -15.0131 
  51   1.0000      -0.540419       -14.7055 
  52   1.0000      -0.527276       -14.3479 
  53   1.0000      -0.521756       -14.1977 
  54   1.0000      -0.517247       -14.0750 
  55   1.0000      -0.514304       -13.9949 
  56   1.0000      -0.500964       -13.6319 
  57   1.0000      -0.424526       -11.5520 
  58   1.0000      -0.417507       -11.3610 
  59   1.0000      -0.411626       -11.2009 
  60   1.0000      -0.405805       -11.0425 
  61   1.0000      -0.397908       -10.8276 
  62   1.0000      -0.396275       -10.7832 
  63   1.0000      -0.392161       -10.6712 
  64   1.0000      -0.384844       -10.4722 
  65   1.0000      -0.346676        -9.4335 
  66   1.0000      -0.323472        -8.8021 
  67   0.0000       0.004443         0.1209 
  68   0.0000       0.026595         0.7237 
  69   0.0000       0.029851         0.8123 
  70   0.0000       0.035482         0.9655 
  71   0.0000       0.052917         1.4399 
  72   0.0000       0.057587         1.5670 
  73   0.0000       0.060242         1.6393 
  74   0.0000       0.062963         1.7133 
  75   0.0000       0.064152         1.7457 
  76   0.0000       0.065671         1.7870 
  77   0.0000       0.071735         1.9520 

                 SPIN DOWN ORBITALS
  NO   OCC          E(Eh)            E(eV) 
   0   1.0000     -19.339299      -526.2491 
   1   1.0000     -19.327961      -525.9405 
   2   1.0000     -19.321022      -525.7517 
   3   1.0000     -19.320651      -525.7416 
   4   1.0000     -14.570141      -396.4737 
   5   1.0000     -14.569126      -396.4461 
   6   1.0000     -14.563277      -396.2869 
   7   1.0000     -14.549969      -395.9248 
   8   1.0000     -10.510274      -285.9991 
   9   1.0000     -10.506146      -285.8868 
  10   1.0000     -10.496231      -285.6170 
  11   1.0000     -10.476608      -285.0830 
  12   1.0000     -10.460002      -284.6311 
  13   1.0000     -10.456068      -284.5241 
  14   1.0000     -10.410650      -283.2882 
  15   1.0000     -10.404809      -283.1293 
  16   1.0000     -10.382329      -282.5175 
  17   1.0000     -10.358793      -281.8771 
  18   1.0000      -1.215119       -33.0651 
  19   1.0000      -1.209699       -32.9176 
  20   1.0000      -1.196010       -32.5451 
  21   1.0000      -1.187650       -32.3176 
  22   1.0000      -1.110734       -30.2246 
  23   1.0000      -1.090561       -29.6757 
  24   1.0000      -1.060349       -28.8536 
  25   1.0000      -1.047986       -28.5171 
  26   1.0000      -0.976004       -26.5584 
  27   1.0000      -0.948541       -25.8111 
  28   1.0000      -0.888265       -24.1709 
  29   1.0000      -0.842674       -22.9303 
  30   1.0000      -0.817717       -22.2512 
  31   1.0000      -0.797862       -21.7109 
  32   1.0000      -0.782348       -21.2888 
  33   1.0000      -0.775897       -21.1132 
  34   1.0000      -0.696098       -18.9418 
  35   1.0000      -0.688851       -18.7446 
  36   1.0000      -0.684695       -18.6315 
  37   1.0000      -0.668542       -18.1920 
  38   1.0000      -0.644614       -17.5408 
  39   1.0000      -0.633746       -17.2451 
  40   1.0000      -0.619347       -16.8533 
  41   1.0000      -0.598941       -16.2980 
  42   1.0000      -0.590071       -16.0566 
  43   1.0000      -0.575197       -15.6519 
  44   1.0000      -0.569916       -15.5082 
  45   1.0000      -0.566315       -15.4102 
  46   1.0000      -0.565609       -15.3910 
  47   1.0000      -0.559121       -15.2145 
  48   1.0000      -0.555949       -15.1282 
  49   1.0000      -0.551485       -15.0067 
  50   1.0000      -0.542172       -14.7532 
  51   1.0000      -0.533116       -14.5068 
  52   1.0000      -0.520871       -14.1736 
  53   1.0000      -0.513995       -13.9865 
  54   1.0000      -0.511579       -13.9208 
  55   1.0000      -0.503926       -13.7125 
  56   1.0000      -0.495325       -13.4785 
  57   1.0000      -0.419514       -11.4156 
  58   1.0000      -0.414305       -11.2738 
  59   1.0000      -0.404349       -11.0029 
  60   1.0000      -0.395306       -10.7568 
  61   1.0000      -0.392592       -10.6830 
  62   1.0000      -0.387143       -10.5347 
  63   1.0000      -0.386651       -10.5213 
  64   1.0000      -0.375366       -10.2142 
  65   0.0000      -0.065788        -1.7902 
  66   0.0000      -0.053246        -1.4489 
  67   0.0000       0.004127         0.1123 
  68   0.0000       0.026379         0.7178 
  69   0.0000       0.029993         0.8162 
  70   0.0000       0.035274         0.9599 
  71   0.0000       0.054624         1.4864 
  72   0.0000       0.057731         1.5710 
  73   0.0000       0.060263         1.6398 
  74   0.0000       0.062802         1.7089 
  75   0.0000       0.064931         1.7669 
*Only the first 10 virtual orbitals were printed.

                    ********************************
                    * MULLIKEN POPULATION ANALYSIS *
                    ********************************

--------------------------------------------
MULLIKEN ATOMIC CHARGES AND SPIN POPULATIONS
--------------------------------------------
   0 O :   -0.655989    0.142727
   1 O :   -0.632182    0.143452
   2 O :   -0.693919    0.005132
   3 O :   -0.641235    0.006622
   4 N :   -0.206597    0.020672
   5 N :   -0.331114    0.026544
   6 N :   -0.048340    0.032191
   7 N :    0.069205    0.028130
   8 C :   -0.230221    0.411928
   9 C :   -0.090931    0.417352
  10 C :    0.478739    0.174968
  11 C :    0.618592    0.207020
  12 C :   -1.546583    0.004789
  13 C :   -1.624094    0.021766
  14 C :    0.661238    0.111565
  15 C :    0.571362    0.115760
  16 C :    0.470556   -0.008936
  17 C :    0.371755   -0.008993
  18 H :    0.608268    0.013326
  19 H :    0.593780    0.030486
  20 H :    0.334594    0.012213
  21 H :    0.287270    0.011374
  22 H :    0.324065    0.033255
  23 H :    0.430127    0.026394
  24 H :    0.378126    0.005551
  25 H :    0.246864    0.019570
  26 H :    0.092061    0.001870
  27 H :    0.091027   -0.001999
  28 H :    0.066872   -0.001669
  29 H :    0.006706   -0.003060
Sum of atomic charges         :    0.0000000
Sum of atomic spin populations:    2.0000000

-----------------------------------------------------
MULLIKEN REDUCED ORBITAL CHARGES AND SPIN POPULATIONS
-----------------------------------------------------
CHARGE
  0 O s       :     4.079575  s :     4.079575
      pz      :     1.564216  p :     4.543727
      px      :     1.321619
      py      :     1.657892
      dz2     :     0.005438  d :     0.030849
      dxz     :     0.007278
      dyz     :     0.003771
      dx2y2   :     0.008425
      dxy     :     0.005937
      f0      :     0.000142  f :     0.001839
      f+1     :     0.000398
      f-1     :     0.000063
      f+2     :     0.000311
      f-2     :     0.000282
      f+3     :     0.000343
      f-3     :     0.000301

  1 O s       :     4.076313  s :     4.076313
      pz      :     1.301073  p :     4.523669
[...]
[1741099572.209048] [ohm:779464:0]        ib_iface.c:1059 UCX  ERROR ibv_create_cq(cqe=256) failed: Connection timed out
[1741099572.209964] [ohm:779473:0]        ib_iface.c:1059 UCX  ERROR ibv_create_cq(cqe=256) failed: Connection timed out
[1741099572.210428] [ohm:779479:0]        ib_iface.c:1059 UCX  ERROR ibv_create_cq(cqe=256) failed: Connection timed out
[1741099572.211336] [ohm:779483:0]        ib_iface.c:1059 UCX  ERROR ibv_create_cq(cqe=256) failed: Connection timed out
[1741099572.211823] [ohm:779555:0]        ib_iface.c:1059 UCX  ERROR ibv_create_cq(cqe=256) failed: Connection timed out
[1741099572.213280] [ohm:779528:0]        ib_iface.c:1059 UCX  ERROR ibv_create_cq(cqe=256) failed: Connection timed out
[1741099572.214930] [ohm:779509:0]        ib_iface.c:1059 UCX  ERROR ibv_create_cq(cqe=256) failed: Connection timed out
[1741099572.215019] [ohm:779516:0]        ib_iface.c:1059 UCX  ERROR ibv_create_cq(cqe=256) failed: Connection timed out
[1741099572.216897] [ohm:779478:0]        ib_iface.c:1059 UCX  ERROR ibv_create_cq(cqe=256) failed: Connection timed out
[1741099572.216930] [ohm:779560:0]        ib_iface.c:1059 UCX  ERROR ibv_create_cq(cqe=256) failed: Connection timed out
[1741099572.218164] [ohm:779486:0]        ib_iface.c:1059 UCX  ERROR ibv_create_cq(cqe=256) failed: Connection timed out


           ************************************************************
           *        Program running with 64 parallel MPI-processes    *
           *              working on a common directory               *
           ************************************************************

------------------------------------------------------------------------------
                              ORCA PROPERTY CALCULATIONS
------------------------------------------------------------------------------

GBWName                                 ... orca.gbw
Number of atoms                         ...     30
Number of basis functions               ...    882
Max core memory                         ...   1024 MB

Electric properties:
Dipole moment                           ... YES
Quadrupole moment                       ...  NO
Static polarizability (Dipole/Dipole)   ...  NO
Static polarizability (Dipole/Quad.)    ...  NO
Static polarizability (Quad./Quad.)     ...  NO
Static polarizability (Velocity)        ...  NO

Atomic electric properties:
Dipole moment                           ...  NO
Quadrupole moment                       ...  NO
Static polarizability                   ...  NO

Choice of electric origin               ... Center of mass
Position of electric origin             ...    -0.014552    -0.081698    -0.045543

General magnetic properties:
Magnetizability                         ...  NO

EPR properties:
g-Tensor (aka g-matrix)                 ...  NO
Zero-Field splitting spin-orbit         ...  NO
Zero-field splitting spin-spin          ...  NO
Hyperfine couplings                     ...  NO (   0 nuclei)
Quadrupole couplings                    ...  NO (   0 nuclei)
Contact density                         ...  NO (   0 nuclei)

NMR properties:
Chemical shifts                         ...  NO (   0 nuclei)
Spin-rotation constants                 ...  NO (   0 nuclei)
Spin-spin couplings                     ...  NO (   0 nuclei,    0 pairs)

Choice of magnetic origin               ... GIAO
Position of magnetic origin             ...     0.000000     0.000000     0.000000

Properties with geometric perturbations:
SCF Hessian                             ...  NO
IR spectrum                             ...  NO
VCD spectrum                            ...  NO
X-ray spectroscopy properties:
SCF XES/XAS/RIXS spectra                ...  NO


-------------
DIPOLE MOMENT
-------------

Method             : SCF
Type of density    : Electron Density
Multiplicity       :   3
Irrep              :   0
Energy             :  -908.7489765684814529 Eh
Relativity type    : 
Basis              : AO
                                X                 Y                 Z
Electronic contribution:     -6.348237594      -8.526749133      -3.894406463
Nuclear contribution   :      7.505494302      10.106097082       6.071729939
                        -----------------------------------------
Total Dipole Moment    :      1.157256709       1.579347949       2.177323476
                        -----------------------------------------
Magnitude (a.u.)       :      2.928194077
Magnitude (Debye)      :      7.442877849



--------------------
Rotational spectrum 
--------------------
 
Rotational constants in cm-1:             0.020514             0.012792             0.011692 
Rotational constants in MHz :           615.008201           383.496909           350.521072 

Dipole components along the rotational axes: 
x,y,z [a.u.] :    -1.147557     1.213097     2.405375 
x,y,z [Debye]:    -2.916859     3.083448     6.113977 

 

-------------
DIPOLE MOMENT
-------------

Method             : TDA/CIS
Type of density    : Electron Density
Level              : Relaxed density
State              :   1
Multiplicity       :   3
Irrep              :   0
Energy             :     0.0000000000000000 Eh
Relativity type    : 
Basis              : AO
                                X                 Y                 Z
Electronic contribution:     -6.359639150      -8.479993392      -3.796059745
Nuclear contribution   :      7.505494302      10.106097082       6.071729939
                        -----------------------------------------
Total Dipole Moment    :      1.145855152       1.626103690       2.275670194
                        -----------------------------------------
Magnitude (a.u.)       :      3.022560516
Magnitude (Debye)      :      7.682738275



--------------------
Rotational spectrum 
--------------------
 
Rotational constants in cm-1:             0.020514             0.012792             0.011692 
Rotational constants in MHz :           615.008201           383.496909           350.521072 

Dipole components along the rotational axes: 
x,y,z [a.u.] :    -1.137479     1.239300     2.511205 
x,y,z [Debye]:    -2.891242     3.150050     6.382976 

 

Dipole moment calculation done in   0.2 sec 

Maximum memory used throughout the entire PROP-calculation: 81.4 MB
[1741099574.707394] [ohm:779784:0]        ib_iface.c:1059 UCX  ERROR ibv_create_cq(cqe=256) failed: Connection timed out
[1741099574.723592] [ohm:779790:0]        ib_iface.c:1059 UCX  ERROR ibv_create_cq(cqe=256) failed: Connection timed out
[1741099574.736766] [ohm:779785:0]        ib_iface.c:1059 UCX  ERROR ibv_create_cq(cqe=256) failed: Connection timed out
[1741099574.740324] [ohm:779794:0]        ib_iface.c:1059 UCX  ERROR ibv_create_cq(cqe=256) failed: Connection timed out
[1741099574.744417] [ohm:779846:0]        ib_iface.c:1059 UCX  ERROR ibv_create_cq(cqe=256) failed: Connection timed out
[1741099574.747522] [ohm:779832:0]        ib_iface.c:1059 UCX  ERROR ibv_create_cq(cqe=256) failed: Connection timed out
[1741099574.750517] [ohm:779787:0]        ib_iface.c:1059 UCX  ERROR ibv_create_cq(cqe=256) failed: Connection timed out
[1741099574.772828] [ohm:779877:0]        ib_iface.c:1059 UCX  ERROR ibv_create_cq(cqe=256) failed: Connection timed out
[1741099574.776977] [ohm:779883:0]        ib_iface.c:1059 UCX  ERROR ibv_create_cq(cqe=256) failed: Connection timed out
[1741099574.780951] [ohm:779782:0]        ib_iface.c:1059 UCX  ERROR ibv_create_cq(cqe=256) failed: Connection timed out
[1741099574.788367] [ohm:779828:0]        ib_iface.c:1059 UCX  ERROR ibv_create_cq(cqe=256) failed: Connection timed out
[1741099574.789320] [ohm:779859:0]        ib_iface.c:1059 UCX  ERROR ibv_create_cq(cqe=256) failed: Connection timed out
[1741099574.838061] [ohm:779865:0]        ib_iface.c:1059 UCX  ERROR ibv_create_cq(cqe=256) failed: Connection timed out
[1741099574.839529] [ohm:779804:0]        ib_iface.c:1059 UCX  ERROR ibv_create_cq(cqe=256) failed: Connection timed out
[1741099574.847598] [ohm:779885:0]        ib_iface.c:1059 UCX  ERROR ibv_create_cq(cqe=256) failed: Connection timed out
[1741099574.847769] [ohm:779868:0]        ib_iface.c:1059 UCX  ERROR ibv_create_cq(cqe=256) failed: Connection timed out
[1741099574.853828] [ohm:779899:0]        ib_iface.c:1059 UCX  ERROR ibv_create_cq(cqe=256) failed: Connection timed out
[1741099574.860554] [ohm:779933:0]        ib_iface.c:1059 UCX  ERROR ibv_create_cq(cqe=256) failed: Connection timed out
[1741099574.893167] [ohm:779819:0]        ib_iface.c:1059 UCX  ERROR ibv_create_cq(cqe=256) failed: Connection timed out
[1741099574.897029] [ohm:779926:0]        ib_iface.c:1059 UCX  ERROR ibv_create_cq(cqe=256) failed: Connection timed out
[1741099574.900988] [ohm:779814:0]        ib_iface.c:1059 UCX  ERROR ibv_create_cq(cqe=256) failed: Connection timed out
[1741099574.901725] [ohm:779890:0]        ib_iface.c:1059 UCX  ERROR ibv_create_cq(cqe=256) failed: Connection timed out
[1741099574.907571] [ohm:779892:0]        ib_iface.c:1059 UCX  ERROR ibv_create_cq(cqe=256) failed: Connection timed out
[1741099574.910058] [ohm:779855:0]        ib_iface.c:1059 UCX  ERROR ibv_create_cq(cqe=256) failed: Connection timed out
[1741099574.911238] [ohm:779898:0]        ib_iface.c:1059 UCX  ERROR ibv_create_cq(cqe=256) failed: Connection timed out
[1741099574.914515] [ohm:779838:0]        ib_iface.c:1059 UCX  ERROR ibv_create_cq(cqe=256) failed: Connection timed out
[1741099574.937986] [ohm:779907:0]        ib_iface.c:1059 UCX  ERROR ibv_create_cq(cqe=256) failed: Connection timed out
[1741099574.957368] [ohm:779928:0]        ib_iface.c:1059 UCX  ERROR ibv_create_cq(cqe=256) failed: Connection timed out
[1741099574.959769] [ohm:779919:0]        ib_iface.c:1059 UCX  ERROR ibv_create_cq(cqe=256) failed: Connection timed out
[1741099574.962690] [ohm:779799:0]        ib_iface.c:1059 UCX  ERROR ibv_create_cq(cqe=256) failed: Connection timed out
[1741099574.967160] [ohm:779801:0]        ib_iface.c:1059 UCX  ERROR ibv_create_cq(cqe=256) failed: Connection timed out
[1741099574.968485] [ohm:779873:0]        ib_iface.c:1059 UCX  ERROR ibv_create_cq(cqe=256) failed: Connection timed out
[1741099574.975925] [ohm:779835:0]        ib_iface.c:1059 UCX  ERROR ibv_create_cq(cqe=256) failed: Connection timed out
[1741099574.978257] [ohm:779783:0]        ib_iface.c:1059 UCX  ERROR ibv_create_cq(cqe=256) failed: Connection timed out
[1741099574.980465] [ohm:779798:0]        ib_iface.c:1059 UCX  ERROR ibv_create_cq(cqe=256) failed: Connection timed out
[1741099574.985828] [ohm:779853:0]        ib_iface.c:1059 UCX  ERROR ibv_create_cq(cqe=256) failed: Connection timed out
[1741099574.999519] [ohm:779791:0]        ib_iface.c:1059 UCX  ERROR ibv_create_cq(cqe=256) failed: Connection timed out
[1741099574.999988] [ohm:779889:0]        ib_iface.c:1059 UCX  ERROR ibv_create_cq(cqe=256) failed: Connection timed out
[1741099575.006688] [ohm:779904:0]        ib_iface.c:1059 UCX  ERROR ibv_create_cq(cqe=256) failed: Connection timed out
[1741099575.006931] [ohm:779826:0]        ib_iface.c:1059 UCX  ERROR ibv_create_cq(cqe=256) failed: Connection timed out
[1741099575.011853] [ohm:779912:0]        ib_iface.c:1059 UCX  ERROR ibv_create_cq(cqe=256) failed: Connection timed out
[1741099575.028309] [ohm:779796:0]        ib_iface.c:1059 UCX  ERROR ibv_create_cq(cqe=256) failed: Connection timed out
[1741099575.028487] [ohm:779802:0]        ib_iface.c:1059 UCX  ERROR ibv_create_cq(cqe=256) failed: Connection timed out
[1741099575.032509] [ohm:779840:0]        ib_iface.c:1059 UCX  ERROR ibv_create_cq(cqe=256) failed: Connection timed out
[1741099575.037009] [ohm:779821:0]        ib_iface.c:1059 UCX  ERROR ibv_create_cq(cqe=256) failed: Connection timed out
[1741099575.037219] [ohm:779905:0]        ib_iface.c:1059 UCX  ERROR ibv_create_cq(cqe=256) failed: Connection timed out
[1741099575.039405] [ohm:779792:0]        ib_iface.c:1059 UCX  ERROR ibv_create_cq(cqe=256) failed: Connection timed out
[1741099575.042002] [ohm:779829:0]        ib_iface.c:1059 UCX  ERROR ibv_create_cq(cqe=256) failed: Connection timed out
[1741099575.047126] [ohm:779789:0]        ib_iface.c:1059 UCX  ERROR ibv_create_cq(cqe=256) failed: Connection timed out
[1741099575.047984] [ohm:779812:0]        ib_iface.c:1059 UCX  ERROR ibv_create_cq(cqe=256) failed: Connection timed out
[1741099575.049943] [ohm:779923:0]        ib_iface.c:1059 UCX  ERROR ibv_create_cq(cqe=256) failed: Connection timed out
[1741099575.050513] [ohm:779797:0]        ib_iface.c:1059 UCX  ERROR ibv_create_cq(cqe=256) failed: Connection timed out
[1741099575.050942] [ohm:779803:0]        ib_iface.c:1059 UCX  ERROR ibv_create_cq(cqe=256) failed: Connection timed out
[1741099575.051620] [ohm:779807:0]        ib_iface.c:1059 UCX  ERROR ibv_create_cq(cqe=256) failed: Connection timed out
[1741099575.052023] [ohm:779848:0]        ib_iface.c:1059 UCX  ERROR ibv_create_cq(cqe=256) failed: Connection timed out
[1741099575.052004] [ohm:779894:0]        ib_iface.c:1059 UCX  ERROR ibv_create_cq(cqe=256) failed: Connection timed out
[1741099575.053570] [ohm:779863:0]        ib_iface.c:1059 UCX  ERROR ibv_create_cq(cqe=256) failed: Connection timed out
[1741099575.054588] [ohm:779786:0]        ib_iface.c:1059 UCX  ERROR ibv_create_cq(cqe=256) failed: Connection timed out
[1741099575.055477] [ohm:779788:0]        ib_iface.c:1059 UCX  ERROR ibv_create_cq(cqe=256) failed: Connection timed out
[1741099575.055910] [ohm:779800:0]        ib_iface.c:1059 UCX  ERROR ibv_create_cq(cqe=256) failed: Connection timed out
[1741099575.058534] [ohm:779793:0]        ib_iface.c:1059 UCX  ERROR ibv_create_cq(cqe=256) failed: Connection timed out
[1741099575.058599] [ohm:779824:0]        ib_iface.c:1059 UCX  ERROR ibv_create_cq(cqe=256) failed: Connection timed out
[1741099575.059363] [ohm:779795:0]        ib_iface.c:1059 UCX  ERROR ibv_create_cq(cqe=256) failed: Connection timed out
[1741099575.076175] [ohm:779806:0]        ib_iface.c:1059 UCX  ERROR ibv_create_cq(cqe=256) failed: Connection timed out

--------------------------------
SUGGESTED CITATIONS FOR THIS RUN
--------------------------------

Below you find a list of papers that are relevant to this ORCA run
We neither can nor want to force you to cite these papers, but we appreciate if you do
You receive ORCA, which is the product of decades of hard work by many enthusiastic individuals, for free
The only thing we kindly ask in return is that you cite our papers,
We deeply appreciate it, if you show your appreciation for ORCA by not just citing the generic ORCA reference.

Please note that relegating all ORCA citations to the supporting information does *not* help us.
SI sections are not indexed - citations you put there will not count into any citation statistics
But we need these citations in order to attract the funding resources that allow us to do what we are doing

Therefore, if you are a happy ORCA user, please consider citing a few of the papers listed below in the main body of your paper

In addition to the list printed below, the program has created the file orca.bibtex that contains the list in bibtex format
You can import this file easily into all common literature databanks and citation aid programs


List of essential papers. We consider these as the minimum necessary citations

  1. Neese,F.
     Software update: the ORCA program system, version 5.0
     WIRES Comput. Molec. Sci., 2022 12(1)e1606
     doi.org/10.1002/wcms.1606

List of papers to cite with high priority. The work reported in these papers was absolutely
necessary for this run to complete.
Our perspective: the developers of density functionals and basis sets usually get cited in chemistry papers
Good! But without the algorithms to do something with them, the functionals or basis sets would not do anything.
Hence, in our opinion, the algorithm design and method developments papers are equally worthy of getting cited

  1. Neese,F.; Olbrich,G.
     Efficient use of the resolution of the identity approximation in time-dependent density functional calculations with hybrid density functionals
     Chem. Phys. Lett., 2002 362 170-178
     doi.org/10.1016/s0009-2614(02)01053-9
  2. Neese,F.
     An improvement of the resolution of the identity approximation for the formation of the Coulomb matrix
     J. Comp. Chem., 2003 24(14)1740-1747
     doi.org/10.1002/jcc.10318
  3. Neese,F.; Wennmohs,F.; Hansen,A.; Becker,U.
     Efficient, approximate and parallel Hartree-Fock and hybrid DFT calculations. A 'chain-of-spheres' algorithm for the Hartree-Fock exchange
     Chem. Phys., 2009 356(1-3)98-109
     doi.org/10.1016/j.chemphys.2008.10.036
  4. Petrenko,T.; Kossmann,S.; Neese,F.
     Efficient time-dependent density functional theory approximations for hybrid density functionals: Analytical gradients and parallelization
     J. Chem. Phys., 2011 134 054116
     doi.org/10.1063/1.3533441
  5. Helmich-Paris,B.; de Souza,B.; Neese,F.; Izsák,R.
     An improved chain of spheres for exchange algorithm
     J. Chem. Phys., 2021 155 104109
     doi.org/doi: 10.1063/5.0058766.
  6. Neese,F.
     The SHARK Integral Generation and Digestion System
     J. Comp. Chem., 2022  1-16
     doi.org/10.1002/jcc.26942
  7. Lehtola,S.; Steigemann,C.; Oliveira,M.; Marques,M.
     Recent developments in Libxc - A comprehensive library of functionals for density functional theory
     Software X, 2018 7 
     doi.org/10.1016/j.softx.2017.11.002
  8. Grimme,S.; Antony,J.; Ehrlich,S.; Krieg,H.
     A consistent and accurate ab initio parametrization of density functional dispersion correction (DFT-D) for the 94 elements H-Pu
     J. Chem. Phys., 2010 132 154104-XXXX
     doi.org/10.1063/1.3382344
  9. Grimme,S.; Ehrlich,S.; Goerigk,L.
     Effect of the damping function in dispersion corrected density functional theory
     J. Comput. Chem., 2011 32(7)1456-1465
     doi.org/10.1002/jcc.21759

List of suggested additional citations. These are papers that are important in the 'surrounding' of 
of this run, or papers that preceded the highly important papers. If you like your results we are grateful for a citation.

  1. Izsak,R.; Neese,F.
     An overlap fitted chain of spheres exchange method
     J. Chem. Phys., 2011 135 144105
     doi.org/10.1063/1.3646921
  2. Izsak,R.; Hansen,A.; Neese,F.
     The resolution of identity and chain of spheres approximations for the LPNO-CCSD singles Fock term
     Molec. Phys., 2012 110 2413-2417
     doi.org/10.1080/00268976.2012.687466
  3. Neese,F.
     The ORCA program system
     WIRES Comput. Molec. Sci., 2012 2(1)73-78
     doi.org/10.1002/wcms.81
  4. Izsak,R.; Neese,F.; Klopper,W.
     Robust fitting techniques in the chain of spheres approximation to the Fock exchange: The role of the complementary space
     J. Chem. Phys., 2013 139 
     doi.org/10.1063/1.4819264
  5. Neese,F.
     Software update: the ORCA program system, version 4.0
     WIRES Comput. Molec. Sci., 2018 8(1)1-6
     doi.org/10.1002/wcms.1327
  6. Neese,F.; Wennmohs,F.; Becker,U.; Riplinger,C.
     The ORCA quantum chemistry program package
     J. Chem. Phys., 2020 152 Art. No. L224108
     doi.org/10.1063/5.0004608

List of optional additional citations

  1. Neese,F.
     Approximate second-order SCF convergence for spin unrestricted wavefunctions
     Chem. Phys. Lett., 2000 325(1-3)93-98
     doi.org/10.1016/s0009-2614(00)00662-x

Timings for individual modules:

Sum of individual times          ...      325.374 sec (=   5.423 min)
Startup calculation              ...        6.448 sec (=   0.107 min)   2.0 %
SCF iterations                   ...      124.192 sec (=   2.070 min)  38.2 %
Property integrals               ...        4.608 sec (=   0.077 min)   1.4 %
Property calculations            ...        2.854 sec (=   0.048 min)   0.9 %
CIS module                       ...      187.272 sec (=   3.121 min)  57.6 %
                             ****ORCA TERMINATED NORMALLY****
TOTAL RUN TIME: 0 days 0 hours 5 minutes 27 seconds 521 msec
