
                                 *****************
                                 * O   R   C   A *
                                 *****************

                                            #,                                       
                                            ###                                      
                                            ####                                     
                                            #####                                    
                                            ######                                   
                                           ########,                                 
                                     ,,################,,,,,                         
                               ,,#################################,,                 
                          ,,##########################################,,             
                       ,#########################################, ''#####,          
                    ,#############################################,,   '####,        
                  ,##################################################,,,,####,       
                ,###########''''           ''''###############################       
              ,#####''   ,,,,##########,,,,          '''####'''          '####       
            ,##' ,,,,###########################,,,                        '##       
           ' ,,###''''                  '''############,,,                           
         ,,##''                                '''############,,,,        ,,,,,,###''
      ,#''                                            '''#######################'''  
     '                                                          ''''####''''         
             ,#######,   #######,   ,#######,      ##                                
            ,#'     '#,  ##    ##  ,#'     '#,    #''#        ,####,   ,####,        
            ##       ##  ##   ,#'  ##            #'  '#       #'       #'  '#        
            ##       ##  #######   ##           ,######,      #####,   #    #        
            '#,     ,#'  ##    ##  '#,     ,#' ,#      #,     #,   #   #,  ,#        
             '#######'   ##     ##  '#######'  #'      '#     '####' # '####'        



                #########################################################
                #                        -***-                          #
                #          Department of theory and spectroscopy        #
                #                                                       #
                #                      Frank Neese                      #
                #                                                       #
                #     Directorship, Architecture, Infrastructure        #
                #                    SHARK, DRIVERS                     #
                #        Core code/Algorithms in most modules           #
                #                                                       #
                #        Max Planck Institute fuer Kohlenforschung      #
                #                Kaiser Wilhelm Platz 1                 #
                #                 D-45470 Muelheim/Ruhr                 #
                #                      Germany                          #
                #                                                       #
                #                  All rights reserved                  #
                #                        -***-                          #
                #########################################################


                         Program Version 6.0.0  -   RELEASE  -


 With contributions from (in alphabetic order):
   Daniel Aravena         : Magnetic Suceptibility
   Michael Atanasov       : Ab Initio Ligand Field Theory (pilot matlab implementation)
   Alexander A. Auer      : GIAO ZORA, VPT2 properties, NMR spectrum
   Ute Becker             : All parallelization in ORCA, NUMFREQ, NUMCALC
   Giovanni Bistoni       : ED, misc. LED, open-shell LED, HFLD
   Martin Brehm           : Molecular dynamics
   Dmytro Bykov           : pre 5.0 version of the SCF Hessian
   Marcos Casanova-Páez   : Triplet and SCS-CIS(D). UHF-(DLPNO)-IP/EA/STEOM-CCSD. UHF-CVS-IP/STEOM-CCSD
   Vijay G. Chilkuri      : MRCI spin determinant printing, contributions to CSF-ICE
   Pauline Colinet        : FMM embedding
   Dipayan Datta          : RHF DLPNO-CCSD density
   Achintya Kumar Dutta   : EOM-CC, STEOM-CC
   Nicolas Foglia         : Exact transition moments, OPA infrastructure, MCD improvements
   Dmitry Ganyushin       : Spin-Orbit,Spin-Spin,Magnetic field MRCI
   Miquel Garcia          : C-PCM and meta-GGA Hessian, CCSD/C-PCM, Gaussian charge scheme
   Tiago L. C. Gouveia    : GS-ROHF, GS-ROCIS
   Yang Guo               : DLPNO-NEVPT2, F12-NEVPT2, CIM, IAO-localization
   Andreas Hansen         : Spin unrestricted coupled pair/coupled cluster methods
   Ingolf Harden          : AUTO-CI MPn and infrastructure 
   Benjamin Helmich-Paris : MC-RPA, TRAH-(SCF,CASSCF), AVAS, COSX integrals, SCF dyn. polar.
   Lee Huntington         : MR-EOM, pCC
   Robert Izsak           : Overlap fitted RIJCOSX, COSX-SCS-MP3, EOM
   Riya Kayal             : Wick's Theorem for AUTO-CI, AUTO-CI UHF-CCSDT
   Emily Kempfer          : AUTO-CI, RHF CISDT and CCSDT
   Christian Kollmar      : KDIIS, OOCD, Brueckner-CCSD(T), CCSD density, CASPT2, CASPT2-K, improved NEVPT2
   Axel Koslowski         : Symmetry handling
   Simone Kossmann        : Meta GGA functionals, TD-DFT gradient, OOMP2, (MP2 Hessian; deprecated post 5.0)
   Lucas Lang             : DCDCAS
   Marvin Lechner         : AUTO-CI (C++ implementation), FIC-MRCC
   Spencer Leger          : CASSCF response
   Dagmar Lenk            : GEPOL surface, SMD, ORCA-2-JSON
   Dimitrios Liakos       : Extrapolation schemes; Compound Job, initial MDCI parallelization
   Dimitrios Manganas     : Further ROCIS development; embedding schemes. LFT, Crystal Embedding
   Dimitrios Pantazis     : SARC Basis sets
   Anastasios Papadopoulos: AUTO-CI, single reference methods and gradients
   Taras Petrenko         : pre 6.0 DFT Hessian and TD-DFT gradient, (ASA, deprecated), ECA, 1-Electron XAS/XES, NRVS
   Peter Pinski           : DLPNO-MP2, DLPNO-MP2 Gradient
   Christoph Reimann      : Effective Core Potentials
   Marius Retegan         : Local ZFS, SOC
   Christoph Riplinger    : Optimizer, TS searches, QM/MM, DLPNO-CCSD(T), (RO)-DLPNO pert. Triples
   Michael Roemelt        : Original ROCIS implementation
   Masaaki Saitow         : Open-shell DLPNO-CCSD energy and density
   Barbara Sandhoefer     : DKH picture change effects
   Kantharuban Sivalingam : CASSCF convergence/infrastructure, NEVPT2 and variants, FIC-MRCI
   Bernardo de Souza      : ESD, SOC TD-DFT
   Georgi Stoychev        : AutoAux, RI-MP2 NMR, DLPNO-MP2 response, X2C
   Van Anh Tran           : RI-MP2 g-tensors
   Willem Van den Heuvel  : Paramagnetic NMR
   Zikuan Wang            : NOTCH, Electric field optimization 
   Frank Wennmohs         : Technical directorship and infrastructure
   Hang Xu                : AUTO-CI-Response properties 


 We gratefully acknowledge several colleagues who have allowed us to
 interface, adapt or use parts of their codes:
   Stefan Grimme, W. Hujo, H. Kruse, P. Pracht,  : VdW corrections, initial TS optimization,
                  C. Bannwarth, S. Ehlert,         DFT functionals, gCP, sTDA/sTD-DF
                  L. Wittmann, M. Mueller
   Ed Valeev, F. Pavosevic, A. Kumar             : LibInt (2-el integral package), F12 methods
   Garnet Chan, S. Sharma, J. Yang, R. Olivares  : DMRG
   Ulf Ekstrom                                   : XCFun DFT Library
   Mihaly Kallay                                 : mrcc  (arbitrary order and MRCC methods)
   Frank Weinhold                                : gennbo (NPA and NBO analysis)
   Simon Mueller                                 : openCOSMO-RS
   Christopher J. Cramer and Donald G. Truhlar   : smd solvation model
   Lars Goerigk                                  : TD-DFT with DH, B97 family of functionals
   V. Asgeirsson, H. Jonsson                     : NEB implementation
   FAccTs GmbH                                   : IRC, NEB, NEB-TS, DLPNO-Multilevel, CI-OPT
                                                   MM, QMMM, 2- and 3-layer-ONIOM, Crystal-QMMM,
                                                   LR-CPCM, SF, NACMEs, symmetry and pop. for TD-DFT,
                                                   nearIR, NL-DFT gradient (VV10), updates on ESD,
                                                   ML-optimized integration grids, MBIS, APM,
                                                   GOAT, DOCKER, SOLVATOR, interface openCOSMO-RS
   S Lehtola, MJT Oliveira, MAL Marques          : LibXC Library
   Liviu Ungur et al                             : ANISO software


 Your calculation uses the libint2 library for the computation of 2-el integrals
 For citations please refer to: http://libint.valeyev.net

 Your ORCA version has been built with support for libXC version: 6.2.2
 For citations please refer to: https://libxc.gitlab.io

 This ORCA versions uses:
   CBLAS   interface :  Fast vector & matrix operations
   LAPACKE interface :  Fast linear algebra routines
   SCALAPACK package :  Parallel linear algebra routines
   Shared memory     :  Shared parallel matrices
   BLAS/LAPACK       :  OpenBLAS 0.3.27  USE64BITINT DYNAMIC_ARCH NO_AFFINITY Zen SINGLE_THREADED
        Core in use  :  Zen
   Copyright (c) 2011-2014, The OpenBLAS Project


Your calculation utilizes the atom-pairwise dispersion correction
with the Becke-Johnson damping scheme (D3BJ)


Warning: RI is on but no J-basis has been assigned. Assigning Def2/J (nothing to worry about!)
================================================================================

----- Orbital basis set information -----
Your calculation utilizes the basis: def2-TZVPPD
   F. Weigend and R. Ahlrichs, Phys. Chem. Chem. Phys. 7, 3297 (2005).
   D. Rappoport and F. Furche, J. Chem. Phys. 133, 134105 (2010)
   D. Rappoport, J. Chem. Phys. 155, 124102 (2021).

----- AuxJ basis set information -----
Your calculation utilizes the auxiliary basis: def2/J
   F. Weigend, Phys. Chem. Chem. Phys. 8, 1057 (2006).

================================================================================
                                        WARNINGS
                       Please study these warnings very carefully!
================================================================================

Using LibXC functional ID 531 : wB97M-V exchange-correlation functional
[ 1]  N. Mardirossian and M. Head-Gordon.,  J. Chem. Phys. 144, 214110 (2016)
Using LibXC functional ID 531 : wB97M-V exchange-correlation functional
[ 1]  N. Mardirossian and M. Head-Gordon.,  J. Chem. Phys. 144, 214110 (2016)

WARNING: B97M-V or wB97M-V functional requested.
  ===> : libXC variant has now been activated.
         Any manually given DFX/HFX/RangeSep scaling parameters are IGNORED!

Your calculation utilizes LibXC
 by S Lehtola, C Steigemann, MJT Oliveira & MAL Marques
Please cite in your paper:
 S Lehtola, C Steigemann, MJT Oliveira & MAL Marques, SoftwareX, 7, (2018), 1.
   


WARNING: your system is open-shell and RHF/RKS was chosen
  ===> : WILL SWITCH to UHF/UKS

INFO   : Checking CIS options ...

WARNING: CIS/ROCIS methods need fully converged wavefunctions
  ===> : Setting SCFConvForced true
         You can overwrite this default with %scf ConvForced false 


================================================================================
                                       INPUT FILE
================================================================================
NAME = orca.inp
|  1> ! EnGrad wB97M-D3BJ def2-TZVPPD 
|  2> %pal nprocs 8 end%pal nprocs 16 end 
|  3> %tddft 
|  4>  sf true 
|  5>  nroots 2 Iroot 2 end 
|  6> *xyz 0 3 
|  7> O   0.75507065016581 1.36322317291448 -0.01183291851211
|  8> C   0.54228635563523 0.20985890299698 0.23821414304882
|  9> C   -0.45479292680507 -0.80125919112323 -0.23674883568025
| 10> H   1.21160626694685 -0.26530904868737 0.99281835694189
| 11> H   0.09884328335854 -1.65850441765371 -0.61908483400803
| 12> H   -1.13478733738213 -0.42389730450785 -0.996495227212
| 13> H   -1.01602629191923 -1.14251211393932 0.63312931542167
| 14> *
| 15> 
| 16>                          ****END OF INPUT****
================================================================================

                     *******************************
                     * Energy+Gradient Calculation *
                     *******************************

---------------------------------
CARTESIAN COORDINATES (ANGSTROEM)
---------------------------------
  O      0.755071    1.363223   -0.011833
  C      0.542286    0.209859    0.238214
  C     -0.454793   -0.801259   -0.236749
  H      1.211606   -0.265309    0.992818
  H      0.098843   -1.658504   -0.619085
  H     -1.134787   -0.423897   -0.996495
  H     -1.016026   -1.142512    0.633129

----------------------------
CARTESIAN COORDINATES (A.U.)
----------------------------
  NO LB      ZA    FRAG     MASS         X           Y           Z
   0 O     8.0000    0    15.999    1.426877    2.576118   -0.022361
   1 C     6.0000    0    12.011    1.024773    0.396576    0.450159
   2 C     6.0000    0    12.011   -0.859434   -1.514160   -0.447390
   3 H     1.0000    0     1.008    2.289604   -0.501361    1.876155
   4 H     1.0000    0     1.008    0.186787   -3.134119   -1.169901
   5 H     1.0000    0     1.008   -2.144437   -0.801050   -1.883103
   6 H     1.0000    0     1.008   -1.920011   -2.159035    1.196441

--------------------------------
INTERNAL COORDINATES (ANGSTROEM)
--------------------------------
 O      0   0   0     0.000000000000     0.00000000     0.00000000
 C      1   0   0     1.199187153082     0.00000000     0.00000000
 C      2   1   0     1.497369936553   134.54545881     0.00000000
 H      2   1   3     1.114989347757   116.39016116   180.13757736
 H      3   2   1     1.089753755319   107.70892159   124.02600017
 H      3   2   1     1.087202359881   113.81358398     1.51257922
 H      3   2   1     1.090011213342   107.52518844   239.23416094

---------------------------
INTERNAL COORDINATES (A.U.)
---------------------------
 O      0   0   0     0.000000000000     0.00000000     0.00000000
 C      1   0   0     2.266135302641     0.00000000     0.00000000
 C      2   1   0     2.829619101252   134.54545881     0.00000000
 H      2   1   3     2.107024509500   116.39016116   180.13757736
 H      3   2   1     2.059336150964   107.70892159   124.02600017
 H      3   2   1     2.054514712329   113.81358398     1.51257922
 H      3   2   1     2.059822676121   107.52518844   239.23416094

---------------------
BASIS SET INFORMATION
---------------------
There are 3 groups of distinct atoms

 Group   1 Type O   : 12s7p3d1f contracted to 6s4p3d1f pattern {621111/4111/111/1}
 Group   2 Type C   : 12s6p3d1f contracted to 6s3p3d1f pattern {621111/411/111/1}
 Group   3 Type H   : 5s3p1d contracted to 3s3p1d pattern {311/111/1}

Atom   0O    basis set group =>   1
Atom   1C    basis set group =>   2
Atom   2C    basis set group =>   2
Atom   3H    basis set group =>   3
Atom   4H    basis set group =>   3
Atom   5H    basis set group =>   3
Atom   6H    basis set group =>   3
---------------------------------
AUXILIARY/J BASIS SET INFORMATION
---------------------------------
There are 3 groups of distinct atoms

 Group   1 Type O   : 12s5p4d2f1g contracted to 6s4p3d1f1g pattern {711111/2111/211/2/1}
 Group   2 Type C   : 12s5p4d2f1g contracted to 6s4p3d1f1g pattern {711111/2111/211/2/1}
 Group   3 Type H   : 5s2p1d contracted to 3s1p1d pattern {311/2/1}

Atom   0O    basis set group =>   1
Atom   1C    basis set group =>   2
Atom   2C    basis set group =>   2
Atom   3H    basis set group =>   3
Atom   4H    basis set group =>   3
Atom   5H    basis set group =>   3
Atom   6H    basis set group =>   3
[1741000517.682213] [ohm:3248326:0]        ib_iface.c:1059 UCX  ERROR ibv_create_cq(cqe=256) failed: Connection timed out
[1741000517.682326] [ohm:3248330:0]        ib_iface.c:1059 UCX  ERROR ibv_create_cq(cqe=256) failed: Connection timed out
[1741000517.682329] [ohm:3248328:0]        ib_iface.c:1059 UCX  ERROR ibv_create_cq(cqe=256) failed: Connection timed out
[1741000517.683349] [ohm:3248324:0]        ib_iface.c:1059 UCX  ERROR ibv_create_cq(cqe=256) failed: Connection timed out
[1741000517.689868] [ohm:3248322:0]        ib_iface.c:1059 UCX  ERROR ibv_create_cq(cqe=256) failed: Connection timed out
[1741000517.691354] [ohm:3248323:0]        ib_iface.c:1059 UCX  ERROR ibv_create_cq(cqe=256) failed: Connection timed out
[1741000517.691355] [ohm:3248325:0]        ib_iface.c:1059 UCX  ERROR ibv_create_cq(cqe=256) failed: Connection timed out
[1741000517.691354] [ohm:3248327:0]        ib_iface.c:1059 UCX  ERROR ibv_create_cq(cqe=256) failed: Connection timed out
[1741000517.691356] [ohm:3248329:0]        ib_iface.c:1059 UCX  ERROR ibv_create_cq(cqe=256) failed: Connection timed out
[1741000517.696526] [ohm:3248336:0]        ib_iface.c:1059 UCX  ERROR ibv_create_cq(cqe=256) failed: Connection timed out
[1741000517.696588] [ohm:3248332:0]        ib_iface.c:1059 UCX  ERROR ibv_create_cq(cqe=256) failed: Connection timed out
[1741000517.696927] [ohm:3248333:0]        ib_iface.c:1059 UCX  ERROR ibv_create_cq(cqe=256) failed: Connection timed out
[1741000517.730238] [ohm:3248348:0]        ib_iface.c:1059 UCX  ERROR ibv_create_cq(cqe=256) failed: Connection timed out
[1741000517.736095] [ohm:3248340:0]        ib_iface.c:1059 UCX  ERROR ibv_create_cq(cqe=256) failed: Connection timed out
[1741000517.737578] [ohm:3248345:0]        ib_iface.c:1059 UCX  ERROR ibv_create_cq(cqe=256) failed: Connection timed out
[1741000517.737593] [ohm:3248350:0]        ib_iface.c:1059 UCX  ERROR ibv_create_cq(cqe=256) failed: Connection timed out


           ************************************************************
           *        Program running with 16 parallel MPI-processes    *
           *              working on a common directory               *
           ************************************************************
------------------------------------------------------------------------------
                             ORCA STARTUP CALCULATIONS
                           -- RI-GTO INTEGRALS CHOSEN --
------------------------------------------------------------------------------
------------------------------------------------------------------------------
                   ___                                                        
                  /   \      - P O W E R E D   B Y -                         
                 /     \                                                     
                 |  |  |   _    _      __       _____    __    __             
                 |  |  |  | |  | |    /  \     |  _  \  |  |  /  |          
                  \  \/   | |  | |   /    \    | | | |  |  | /  /          
                 / \  \   | |__| |  /  /\  \   | |_| |  |  |/  /          
                |  |  |   |  __  | /  /__\  \  |    /   |      \           
                |  |  |   | |  | | |   __   |  |    \   |  |\   \          
                \     /   | |  | | |  |  |  |  | |\  \  |  | \   \       
                 \___/    |_|  |_| |__|  |__|  |_| \__\ |__|  \__/        
                                                                              
                      - O R C A' S   B I G   F R I E N D -                    
                                      &                                       
                       - I N T E G R A L  F E E D E R -                       
                                                                              
 v1 FN, 2020, v2 2021, v3 2022-2024                                           
------------------------------------------------------------------------------


----------------------
SHARK INTEGRAL PACKAGE
----------------------

Number of atoms                             ...      7
Number of basis functions                   ...    182
Number of shells                            ...     68
Maximum angular momentum                    ...      3
Integral batch strategy                     ... SHARK/LIBINT Hybrid
RI-J (if used) integral strategy            ... SPLIT-RIJ (Revised 2003 algorithm where possible)
Printlevel                                  ...      1
Contraction scheme used                     ... SEGMENTED contraction
Prescreening option                         ... SCHWARTZ
   Thresh                                   ... 2.500e-11
   Tcut                                     ... 2.500e-12
   Tpresel                                  ... 2.500e-12 
Coulomb Range Separation                    ... NOT USED
Exchange Range Separation                   ... Long Range
   Mu parameter                             ... 3.000e-01
   Scaling (regular/separated)              ... 1.500e-01 8.500e-01
Multipole approximations                    ... NOT USED
Finite Nucleus Model                        ... NOT USED
CABS basis                                  ... NOT available
Auxiliary Coulomb fitting basis             ... AVAILABLE
   # of basis functions in Aux-J            ...    191
   # of shells in Aux-J                     ...     65
   Maximum angular momentum in Aux-J        ...      4
Auxiliary J/K fitting basis                 ... NOT available
Auxiliary Correlation fitting basis         ... NOT available
Auxiliary 'external' fitting basis          ... NOT available

Checking pre-screening integrals            ... done (  0.0 sec) Dimension = 68
Check shell pair data                       ... done (  0.0 sec)
Shell pair information
Shell pair cut-off parameter TPreSel        ...   2.5e-12
Total number of shell pairs                 ...      2346
Shell pairs after pre-screening             ...      2322
Total number of primitive shell pairs       ...      5434
Primitive shell pairs kept                  ...      4805
          la=0 lb=0:    453 shell pairs
          la=1 lb=0:    653 shell pairs
          la=1 lb=1:    253 shell pairs
          la=2 lb=0:    385 shell pairs
          la=2 lb=1:    286 shell pairs
          la=2 lb=2:     91 shell pairs
          la=3 lb=0:     90 shell pairs
          la=3 lb=1:     66 shell pairs
          la=3 lb=2:     39 shell pairs
          la=3 lb=3:      6 shell pairs

Calculating one electron integrals          ... done (  0.0 sec)
Calculating RI/J V-Matrix + Cholesky decomp.... done (  0.0 sec)
Calculating Nuclear repulsion               ... done (  0.0 sec) ENN=     69.536837889951 Eh

Diagonalization of the overlap matrix:
Smallest eigenvalue                        ... 1.370e-05
Time for diagonalization                   ...    0.003 sec
Threshold for overlap eigenvalues          ... 1.000e-07
Number of eigenvalues below threshold      ... 0
Time for construction of square roots      ...    0.001 sec
Total time needed                          ...    0.005 sec

-------------------
DFT GRID GENERATION
-------------------

General Integration Accuracy     IntAcc      ... 4.388
Radial Grid Type                 RadialGrid  ... OptM3 with GC (2021)
Angular Grid (max. ang.)         AngularGrid ... 4 (Lebedev-302)
Angular grid pruning method      GridPruning ... 4 (adaptive)
Weight generation scheme         WeightScheme... mBecke (2022)
Basis function cutoff            BFCut       ... 1.0000e-11
Integration weight cutoff        WCut        ... 1.0000e-14
Partially contracted basis set               ... off
Rotationally invariant grid construction     ... off
Angular grids for H and He will be reduced by one unit
Diffuse basis detected: some atoms will have their outermost
                        angular grid increased by 1.

Total number of grid points                  ...    33136
Total number of batches                      ...      522
Average number of points per batch           ...       63
Average number of grid points per atom       ...     4734

--------------------
COSX GRID GENERATION
--------------------

GRIDX 1
-------
General Integration Accuracy     IntAcc      ... 3.816
Radial Grid Type                 RadialGrid  ... OptM3 with GC (2021)
Angular Grid (max. ang.)         AngularGrid ... 1 (Lebedev-50)
Angular grid pruning method      GridPruning ... 4 (adaptive)
Weight generation scheme         WeightScheme... mBecke (2022)
Basis function cutoff            BFCut       ... 1.0000e-11
Integration weight cutoff        WCut        ... 1.0000e-14
Partially contracted basis set               ... on
Rotationally invariant grid construction     ... off
Angular grids for H and He will be reduced by one unit
Diffuse basis detected: some atoms will have their outermost
                        angular grid increased by 1.

Total number of grid points                  ...     4176
Total number of batches                      ...       36
Average number of points per batch           ...      116
Average number of grid points per atom       ...      597
UseSFitting                                  ... on

GRIDX 2
-------
General Integration Accuracy     IntAcc      ... 4.020
Radial Grid Type                 RadialGrid  ... OptM3 with GC (2021)
Angular Grid (max. ang.)         AngularGrid ... 2 (Lebedev-110)
Angular grid pruning method      GridPruning ... 4 (adaptive)
Weight generation scheme         WeightScheme... mBecke (2022)
Basis function cutoff            BFCut       ... 1.0000e-11
Integration weight cutoff        WCut        ... 1.0000e-14
Partially contracted basis set               ... on
Rotationally invariant grid construction     ... off
Angular grids for H and He will be reduced by one unit
Diffuse basis detected: some atoms will have their outermost
                        angular grid increased by 1.

Total number of grid points                  ...    10301
Total number of batches                      ...       84
Average number of points per batch           ...      122
Average number of grid points per atom       ...     1472
UseSFitting                                  ... on

GRIDX 3
-------
General Integration Accuracy     IntAcc      ... 4.338
Radial Grid Type                 RadialGrid  ... OptM3 with GC (2021)
Angular Grid (max. ang.)         AngularGrid ... 3 (Lebedev-194)
Angular grid pruning method      GridPruning ... 4 (adaptive)
Weight generation scheme         WeightScheme... mBecke (2022)
Basis function cutoff            BFCut       ... 1.0000e-11
Integration weight cutoff        WCut        ... 1.0000e-14
Partially contracted basis set               ... on
Rotationally invariant grid construction     ... off
Angular grids for H and He will be reduced by one unit
Diffuse basis detected: some atoms will have their outermost
                        angular grid increased by 1.

Total number of grid points                  ...    23149
Total number of batches                      ...      185
Average number of points per batch           ...      125
Average number of grid points per atom       ...     3307
UseSFitting                                  ... on
Initializing property integral containers    ... done (  0.0 sec)

SHARK setup successfully completed in   0.4 seconds

Maximum memory used throughout the entire STARTUP-calculation: 13.8 MB
[1741000518.683785] [ohm:3248418:0]        ib_iface.c:1059 UCX  ERROR ibv_create_cq(cqe=256) failed: Connection timed out
[1741000518.683781] [ohm:3248420:0]        ib_iface.c:1059 UCX  ERROR ibv_create_cq(cqe=256) failed: Connection timed out
[1741000518.692042] [ohm:3248417:0]        ib_iface.c:1059 UCX  ERROR ibv_create_cq(cqe=256) failed: Connection timed out
[1741000518.692095] [ohm:3248421:0]        ib_iface.c:1059 UCX  ERROR ibv_create_cq(cqe=256) failed: Connection timed out
[1741000518.692548] [ohm:3248422:0]        ib_iface.c:1059 UCX  ERROR ibv_create_cq(cqe=256) failed: Connection timed out
[1741000518.702507] [ohm:3248424:0]        ib_iface.c:1059 UCX  ERROR ibv_create_cq(cqe=256) failed: Connection timed out
[1741000518.709146] [ohm:3248427:0]        ib_iface.c:1059 UCX  ERROR ibv_create_cq(cqe=256) failed: Connection timed out
[1741000518.709834] [ohm:3248423:0]        ib_iface.c:1059 UCX  ERROR ibv_create_cq(cqe=256) failed: Connection timed out
[1741000518.709820] [ohm:3248432:0]        ib_iface.c:1059 UCX  ERROR ibv_create_cq(cqe=256) failed: Connection timed out
[1741000518.710932] [ohm:3248419:0]        ib_iface.c:1059 UCX  ERROR ibv_create_cq(cqe=256) failed: Connection timed out
[1741000518.713054] [ohm:3248430:0]        ib_iface.c:1059 UCX  ERROR ibv_create_cq(cqe=256) failed: Connection timed out
[1741000518.714060] [ohm:3248425:0]        ib_iface.c:1059 UCX  ERROR ibv_create_cq(cqe=256) failed: Connection timed out
[1741000518.714516] [ohm:3248438:0]        ib_iface.c:1059 UCX  ERROR ibv_create_cq(cqe=256) failed: Connection timed out
[1741000518.714715] [ohm:3248429:0]        ib_iface.c:1059 UCX  ERROR ibv_create_cq(cqe=256) failed: Connection timed out
[1741000518.744921] [ohm:3248446:0]        ib_iface.c:1059 UCX  ERROR ibv_create_cq(cqe=256) failed: Connection timed out
[1741000518.746836] [ohm:3248443:0]        ib_iface.c:1059 UCX  ERROR ibv_create_cq(cqe=256) failed: Connection timed out


           ************************************************************
           *        Program running with 16 parallel MPI-processes    *
           *              working on a common directory               *
           ************************************************************
-------------------------------------------------------------------------------
                                 ORCA GUESS
                   Start orbitals & Density for SCF / CASSCF
-------------------------------------------------------------------------------

------------
SCF SETTINGS
------------
Hamiltonian:
 Density Functional     Method          .... DFT(GTOs)
  Functional kind                       .... Exchange-Correlation
  Functional name                       .... wB97M-V exchange-correlation functional
  Functional family                     .... Hybrid MGGA
  Functional refs                              
    [ 0] N. Mardirossian and M. Head-Gordon.,  J. Chem. Phys. 144, 214110 (2016), doi: 10.1063/1.4952647
  Fraction of HF Exchange (short range) .... 0.1500
  Fraction of HF Exchange (long range)  .... 1.0000
  Range separation parameter mu         .... 0.3000
  Functional external parameters        .... 17
    Parameter  0 _cx00      =  8.500000e-01 : u^00 coefficient for exchange
    Parameter  1 _cx01      =  1.007000e+00 : u^01 coefficient for exchange
    Parameter  2 _cx10      =  2.590000e-01 : u^10 coefficient for exchange
    Parameter  3 _css00     =  4.430000e-01 : u^00 coefficient for same-spin correlation
    Parameter  4 _css04     = -1.437000e+00 : u^04 coefficient for same-spin correlation
    Parameter  5 _css10     = -4.535000e+00 : u^10 coefficient for same-spin correlation
    Parameter  6 _css20     = -3.390000e+00 : u^20 coefficient for same-spin correlation
    Parameter  7 _css43     =  4.278000e+00 : u^43 coefficient for same-spin correlation
    Parameter  8 _cos00     =  1.000000e+00 : u^00 coefficient for opposite-spin correlation
    Parameter  9 _cos10     =  1.358000e+00 : u^10 coefficient for opposite-spin correlation
    Parameter 10 _cos20     =  2.924000e+00 : u^20 coefficient for opposite-spin correlation
    Parameter 11 _cos21     = -8.812000e+00 : u^21 coefficient for opposite-spin correlation
    Parameter 12 _cos60     = -1.390000e+00 : u^60 coefficient for opposite-spin correlation
    Parameter 13 _cos61     =  9.142000e+00 : u^61 coefficient for opposite-spin correlation
    Parameter 14 _alpha     =  1.000000e+00 : fraction of HF exchange
    Parameter 15 _beta      = -8.500000e-01 : fraction of short-range exchange
    Parameter 16 _omega     =  3.000000e-01 : range-separation constant
 Long-range corrected/Screened/Range-Separated Hybrid DFT is turned on
   Amount of maximum screened exact exchange              ....  0.850000
   Range separation parameter mu (erf(mu*r12)/r12)        ....  0.300000
 RI-approximation to the Coulomb term is turned on
   Number of AuxJ basis functions       .... 191
   RIJ-COSX (HFX calculated with COS-X)).... on


General Settings:
 Integral files         IntName         .... orca
 Hartree-Fock type      HFTyp           .... UHF
 Total Charge           Charge          ....    0
 Multiplicity           Mult            ....    3
 Number of Electrons    NEL             ....   24
 Basis Dimension        Dim             ....  182
 Nuclear Repulsion      ENuc            ....     69.5368378900 Eh

Convergence Acceleration:
 AO-DIIS                CNVDIIS         .... on
   Start iteration      DIISMaxIt       ....    12
   Startup error        DIISStart       ....  0.200000
   # of expansion vecs  DIISMaxEq       ....     5
   Bias factor          DIISBfac        ....   1.050
   Max. coefficient     DIISMaxC        ....  10.000
 MO-DIIS                CNVKDIIS        .... off
 Trust-Rad. Augm. Hess. CNVTRAH         .... auto
   Auto Start mean grad. ratio tolernc. ....  1.125000
   Auto Start start iteration           ....    50
   Auto Start num. interpolation iter.  ....    10
   Max. Number of Micro iterations      ....    24
   Max. Number of Macro iterations      .... Maxiter - #DIIS iter
   Number of Davidson start vectors     ....     2
   Converg. threshold    (grad. norm)   ....   1.000e-05
   Grad. Scal. Fac. for Micro threshold ....   0.100
   Minimum threshold for Micro iter.    ....   1.000e-02
   NR start threshold (gradient norm)   ....   1.000e-04
   Initial trust radius                 ....   0.400
   Minimum AH scaling param. (alpha)    ....   1.000
   Maximum AH scaling param. (alpha)    .... 1000.000
   Quad. conv. algorithm                .... NR
   White noise on init. David. guess    .... on
   Maximum white noise                  ....   0.010
   Pseudo random numbers                .... off
   Inactive MOs                         .... canonical
   Orbital update algorithm             .... Taylor
   Preconditioner                       .... Diag
   Full preconditioner red. dimension   ....   250
 SOSCF                  CNVSOSCF        .... on
   Start iteration      SOSCFMaxIt      ....   150
   Startup grad/error   SOSCFStart      ....  0.003300
   Hessian update       SOSCFHessUp     .... L-BFGS
 Level Shifting         CNVShift        .... on
   Level shift para.    LevelShift      ....    0.2500
   Turn off err/grad.   ShiftErr        ....    0.0010
 Zerner damping         CNVZerner       .... off
 Static damping         CNVDamp         .... on
   Fraction old density DampFac         ....    0.7000
   Max. Damping (<1)    DampMax         ....    0.9800
   Min. Damping (>=0)   DampMin         ....    0.0000
   Turn off err/grad.   DampErr         ....    0.1000

SCF Procedure:
 Maximum # iterations   MaxIter         ....   125
 SCF integral mode      SCFMode         .... Direct
   Integral package                     .... SHARK and LIBINT hybrid scheme
 Reset frequency        DirectResetFreq ....    20
 Integral Threshold     Thresh          ....  2.500e-11 Eh
 Primitive CutOff       TCut            ....  2.500e-12 Eh

Convergence Tolerance:
 Convergence Check Mode ConvCheckMode   .... Total+1el-Energy
 Convergence forced     ConvForced      .... 1
 Energy Change          TolE            ....  1.000e-08 Eh
 1-El. energy change                    ....  1.000e-05 Eh
 Orbital Gradient       TolG            ....  1.000e-05
 Orbital Rotation angle TolX            ....  1.000e-05
 DIIS Error             TolErr          ....  5.000e-07

------------------------------
INITIAL GUESS: MODEL POTENTIAL
------------------------------
Loading Hartree-Fock densities                     ... done
Calculating cut-offs                               ... done
Initializing the effective Hamiltonian             ... done
Setting up the integral package (SHARK)            ... done
Starting the Coulomb interaction                   ... done (   0.0 sec)
Making the grid                                    ... done (   0.0 sec)
Mapping shells                                     ... done
Starting the XC term evaluation                    ... done (   0.0 sec)
  promolecular density results
     # of electrons  =     23.997496073
     EX              =    -19.522464160
     EC              =     -0.771911459
     EX+EC           =    -20.294375619
Transforming the Hamiltonian                       ... done (   0.0 sec)
Diagonalizing the Hamiltonian                      ... done (   0.0 sec)
Back transforming the eigenvectors                 ... done (   0.0 sec)
Now organizing SCF variables                       ... done
                      ------------------
                      INITIAL GUESS DONE (   0.1 sec)
                      ------------------
             **** ENERGY FILE WAS UPDATED (orca.en.tmp) ****
Finished Guess after   0.5 sec
Maximum memory used throughout the entire GUESS-calculation: 9.7 MB
[1741000519.460198] [ohm:3248507:0]        ib_iface.c:1059 UCX  ERROR ibv_create_cq(cqe=256) failed: Connection timed out
[1741000519.469420] [ohm:3248509:0]        ib_iface.c:1059 UCX  ERROR ibv_create_cq(cqe=256) failed: Connection timed out
[1741000519.469584] [ohm:3248505:0]        ib_iface.c:1059 UCX  ERROR ibv_create_cq(cqe=256) failed: Connection timed out
[1741000519.471590] [ohm:3248504:0]        ib_iface.c:1059 UCX  ERROR ibv_create_cq(cqe=256) failed: Connection timed out
[1741000519.471574] [ohm:3248508:0]        ib_iface.c:1059 UCX  ERROR ibv_create_cq(cqe=256) failed: Connection timed out
[1741000519.471698] [ohm:3248506:0]        ib_iface.c:1059 UCX  ERROR ibv_create_cq(cqe=256) failed: Connection timed out
[1741000519.473066] [ohm:3248514:0]        ib_iface.c:1059 UCX  ERROR ibv_create_cq(cqe=256) failed: Connection timed out
[1741000519.476958] [ohm:3248511:0]        ib_iface.c:1059 UCX  ERROR ibv_create_cq(cqe=256) failed: Connection timed out
[1741000519.478552] [ohm:3248512:0]        ib_iface.c:1059 UCX  ERROR ibv_create_cq(cqe=256) failed: Connection timed out
[1741000519.481119] [ohm:3248510:0]        ib_iface.c:1059 UCX  ERROR ibv_create_cq(cqe=256) failed: Connection timed out
[1741000519.482240] [ohm:3248518:0]        ib_iface.c:1059 UCX  ERROR ibv_create_cq(cqe=256) failed: Connection timed out
[1741000519.484206] [ohm:3248527:0]        ib_iface.c:1059 UCX  ERROR ibv_create_cq(cqe=256) failed: Connection timed out
[1741000519.484203] [ohm:3248534:0]        ib_iface.c:1059 UCX  ERROR ibv_create_cq(cqe=256) failed: Connection timed out
[1741000519.485699] [ohm:3248516:0]        ib_iface.c:1059 UCX  ERROR ibv_create_cq(cqe=256) failed: Connection timed out
[1741000519.485982] [ohm:3248522:0]        ib_iface.c:1059 UCX  ERROR ibv_create_cq(cqe=256) failed: Connection timed out
[1741000519.496395] [ohm:3248531:0]        ib_iface.c:1059 UCX  ERROR ibv_create_cq(cqe=256) failed: Connection timed out


           ************************************************************
           *        Program running with 16 parallel MPI-processes    *
           *              working on a common directory               *
           ************************************************************

-------------------------------------------------------------------------------------------
                                      ORCA LEAN-SCF
                              memory conserving SCF solver
-------------------------------------------------------------------------------------------

----------------------------------------D-I-I-S--------------------------------------------
Iteration    Energy (Eh)           Delta-E    RMSDP     MaxDP     DIISErr   Damp  Time(sec)
-------------------------------------------------------------------------------------------
               ***  Starting incremental Fock matrix formation  ***
    1    -153.6938241003031749     0.00e+00  9.73e-04  2.64e-02  8.03e-02  0.700   0.4
    2    -153.7264145158947031    -3.26e-02  8.88e-04  2.50e-02  4.88e-02  0.700   0.3
                               ***Turning on AO-DIIS***
    3    -153.7438495227082171    -1.74e-02  6.87e-04  2.18e-02  2.55e-02  0.700   0.3
    4    -153.7544203026891410    -1.06e-02  1.64e-03  5.09e-02  1.85e-02  0.000   0.3
    5    -153.7782250135947493    -2.38e-02  1.24e-04  4.44e-03  4.91e-03  0.000   0.3
                              *** Initializing SOSCF ***
---------------------------------------S-O-S-C-F--------------------------------------
Iteration    Energy (Eh)           Delta-E    RMSDP     MaxDP     MaxGrad    Time(sec)
--------------------------------------------------------------------------------------
    6    -153.7786326853034780    -4.08e-04  8.10e-05  2.16e-03  3.08e-03     0.3
               *** Restarting incremental Fock matrix formation ***
    7    -153.7788559240378277    -2.23e-04  6.72e-05  1.67e-03  4.22e-03     0.4
    8    -153.7789610204847577    -1.05e-04  9.41e-05  2.12e-03  1.77e-03     0.3
    9    -153.7790444918229582    -8.35e-05  2.31e-05  7.68e-04  2.94e-04     0.3
   10    -153.7790463608709501    -1.87e-06  1.75e-05  6.32e-04  1.15e-04     0.3
   11    -153.7790468161054491    -4.55e-07  4.07e-06  1.44e-04  4.46e-05     0.3
   12    -153.7790468785113376    -6.24e-08  1.64e-06  1.00e-04  1.41e-05     0.3
   13    -153.7790468880501749    -9.54e-09  6.04e-07  1.23e-05  6.00e-06     0.3
                 **** Energy Check signals convergence ****

               *****************************************************
               *                     SUCCESS                       *
               *           SCF CONVERGED AFTER  13 CYCLES          *
               *****************************************************

Recomputing exchange energy using gridx3       ... done (    0.400 sec)
Old exchange energy                            :     -6.202314958 Eh
New exchange energy                            :     -6.202325008 Eh
Exchange energy change after final integration :     -0.000010051 Eh
Total energy after final integration           :   -153.779056939 Eh
             **** ENERGY FILE WAS UPDATED (orca.en.tmp) ****

----------------
TOTAL SCF ENERGY
----------------

Total Energy       :       -153.77905693863636 Eh           -4184.54088 eV

Components:
Nuclear Repulsion  :         69.53683788995086 Eh            1892.19356 eV
Electronic Energy  :       -223.31588477800102 Eh           -6076.73416 eV
One Electron Energy:       -345.37907373010944 Eh           -9398.24239 eV
Two Electron Energy:        122.06318895210842 Eh            3321.50823 eV

Virial components:
Potential Energy   :       -307.37231738726439 Eh           -8364.02597 eV
Kinetic Energy     :        153.59326044862803 Eh            4179.48510 eV
Virial Ratio       :          2.00120966564201

DFT components:
N(Alpha)           :       12.999997398441 electrons
N(Beta)            :       10.999997223976 electrons
N(Total)           :       23.999994622417 electrons
E(XC)              :      -14.755131080993 Eh       

---------------
SCF CONVERGENCE
---------------

  Last Energy change         ...    9.5388e-09  Tolerance :   1.0000e-08
  Last MAX-Density change    ...    1.2276e-05  Tolerance :   1.0000e-07
  Last RMS-Density change    ...    6.0396e-07  Tolerance :   5.0000e-09
  Last DIIS Error            ...    3.0770e-03  Tolerance :   5.0000e-07
  Last Orbital Gradient      ...    5.9951e-06  Tolerance :   1.0000e-05
  Last Orbital Rotation      ...    2.0913e-05  Tolerance :   1.0000e-05


----------------------
UHF SPIN CONTAMINATION
----------------------

Warning: in a DFT calculation there is little theoretical justification to 
         calculate <S**2> as in Hartree-Fock theory. We will do it anyways
         but you should keep in mind that the values have only limited relevance

Expectation value of <S**2>     :     2.006041
Ideal value S*(S+1) for S=1.0   :     2.000000
Deviation                       :     0.006041

----------------
ORBITAL ENERGIES
----------------
                 SPIN UP ORBITALS
  NO   OCC          E(Eh)            E(eV) 
   0   1.0000     -19.406914      -528.0890 
   1   1.0000     -10.380168      -282.4587 
   2   1.0000     -10.369508      -282.1687 
   3   1.0000      -1.243726       -33.8435 
   4   1.0000      -0.887069       -24.1384 
   5   1.0000      -0.716157       -19.4876 
   6   1.0000      -0.630800       -17.1649 
   7   1.0000      -0.589141       -16.0314 
   8   1.0000      -0.580913       -15.8074 
   9   1.0000      -0.516713       -14.0605 
  10   1.0000      -0.516037       -14.0421 
  11   1.0000      -0.427067       -11.6211 
  12   1.0000      -0.217929        -5.9302 
  13   0.0000       0.038763         1.0548 
  14   0.0000       0.059897         1.6299 
  15   0.0000       0.077792         2.1168 
  16   0.0000       0.087543         2.3822 
  17   0.0000       0.106697         2.9034 
  18   0.0000       0.128058         3.4846 
  19   0.0000       0.128972         3.5095 
  20   0.0000       0.133113         3.6222 
  21   0.0000       0.169194         4.6040 
  22   0.0000       0.183572         4.9953 
  23   0.0000       0.201452         5.4818 

                 SPIN DOWN ORBITALS
  NO   OCC          E(Eh)            E(eV) 
   0   1.0000     -19.379705      -527.3486 
   1   1.0000     -10.369924      -282.1800 
   2   1.0000     -10.367510      -282.1143 
   3   1.0000      -1.187298       -32.3080 
   4   1.0000      -0.868059       -23.6211 
   5   1.0000      -0.670476       -18.2446 
   6   1.0000      -0.585390       -15.9293 
   7   1.0000      -0.541616       -14.7381 
   8   1.0000      -0.535815       -14.5803 
   9   1.0000      -0.497960       -13.5502 
  10   1.0000      -0.471595       -12.8328 
  11   0.0000      -0.082580        -2.2471 
  12   0.0000       0.039677         1.0797 
  13   0.0000       0.059562         1.6208 
  14   0.0000       0.077426         2.1069 
  15   0.0000       0.084786         2.3071 
  16   0.0000       0.094366         2.5678 
  17   0.0000       0.107266         2.9189 
  18   0.0000       0.127966         3.4821 
  19   0.0000       0.128795         3.5047 
  20   0.0000       0.133723         3.6388 
  21   0.0000       0.169227         4.6049 
*Only the first 10 virtual orbitals were printed.

                    ********************************
                    * MULLIKEN POPULATION ANALYSIS *
                    ********************************

--------------------------------------------
MULLIKEN ATOMIC CHARGES AND SPIN POPULATIONS
--------------------------------------------
   0 O :   -0.322544    0.944118
   1 C :    0.008340    0.771521
   2 C :   -0.584793    0.111848
   3 H :    0.217123    0.104429
   4 H :    0.214021    0.029423
   5 H :    0.254251    0.007300
   6 H :    0.213603    0.031360
Sum of atomic charges         :    0.0000000
Sum of atomic spin populations:    2.0000000

-----------------------------------------------------
MULLIKEN REDUCED ORBITAL CHARGES AND SPIN POPULATIONS
-----------------------------------------------------
CHARGE
  0 O s       :     4.019047  s :     4.019047
      pz      :     1.458537  p :     4.247579
      px      :     1.393072
      py      :     1.395969
      dz2     :     0.004780  d :     0.053964
      dxz     :     0.002435
      dyz     :     0.018534
      dx2y2   :     0.011870
      dxy     :     0.016345
      f0      :     0.000213  f :     0.001955
      f+1     :     0.000042
      f-1     :     0.000325
      f+2     :     0.000351
      f-2     :     0.000122
      f+3     :     0.000504
      f-3     :     0.000398

  1 C s       :     3.272494  s :     3.272494
      pz      :     1.015100  p :     2.611450
      px      :     0.943505
      py      :     0.652845
      dz2     :     0.010240  d :     0.091800
      dxz     :     0.000726
      dyz     :     0.042271
      dx2y2   :    -0.000234
      dxy     :     0.038797
      f0      :     0.001689  f :     0.015917
      f+1     :     0.000703
      f-1     :     0.002448
      f+2     :     0.002389
      f-2     :     0.001528
      f+3     :     0.004032
      f-3     :     0.003128

  2 C s       :     3.337833  s :     3.337833
      pz      :     1.153284  p :     3.165108
      px      :     1.004048
      py      :     1.007776
      dz2     :    -0.006207  d :     0.079215
      dxz     :     0.022492
      dyz     :     0.033105
      dx2y2   :     0.009623
      dxy     :     0.020201
      f0      :     0.000128  f :     0.002637
      f+1     :     0.000451
      f-1     :     0.000241
      f+2     :     0.000131
      f-2     :     0.000766
      f+3     :     0.000431
      f-3     :     0.000491

  3 H s       :     0.730752  s :     0.730752
      pz      :     0.020023  p :     0.049107
      px      :     0.015399
      py      :     0.013685
      dz2     :     0.000824  d :     0.003018
      dxz     :     0.000510
      dyz     :     0.000642
      dx2y2   :     0.000595
      dxy     :     0.000447

  4 H s       :     0.732541  s :     0.732541
      pz      :     0.014846  p :     0.051247
      px      :     0.007557
      py      :     0.028845
      dz2     :     0.000269  d :     0.002192
      dxz     :     0.000305
      dyz     :     0.000442
      dx2y2   :     0.000617
      dxy     :     0.000559

  5 H s       :     0.706840  s :     0.706840
      pz      :     0.018332  p :     0.036750
      px      :     0.016638
      py      :     0.001781
      dz2     :     0.000559  d :     0.002159
      dxz     :     0.000459
      dyz     :     0.000421
      dx2y2   :     0.000343
      dxy     :     0.000377

  6 H s       :     0.732107  s :     0.732107
      pz      :     0.014011  p :     0.052102
      px      :     0.016925
      py      :     0.021167
      dz2     :     0.000671  d :     0.002188
      dxz     :     0.000490
      dyz     :     0.000490
      dx2y2   :     0.000220
      dxy     :     0.000317


SPIN
  0 O s       :    -0.001000  s :    -0.001000
      pz      :     0.423159  p :     0.935111
      px      :     0.487107
      py      :     0.024844
      dz2     :     0.000953  d :     0.010167
      dxz     :     0.000884
      dyz     :     0.003985
      dx2y2   :     0.003056
      dxy     :     0.001288
      f0      :     0.000010  f :    -0.000160
      f+1     :    -0.000001
      f-1     :    -0.000026
      f+2     :    -0.000029
      f-2     :     0.000003
      f+3     :    -0.000053
      f-3     :    -0.000064

  1 C s       :    -0.008885  s :    -0.008885
      pz      :     0.379729  p :     0.702763
      px      :     0.285347
      py      :     0.037688
      dz2     :     0.012295  d :     0.077000
      dxz     :     0.001053
      dyz     :     0.026945
      dx2y2   :     0.001359
      dxy     :     0.035348
      f0      :     0.000012  f :     0.000642
      f+1     :     0.000044
      f-1     :    -0.000041
      f+2     :     0.000401
      f-2     :    -0.000250
      f+3     :     0.000558
      f-3     :    -0.000081

  2 C s       :     0.066220  s :     0.066220
      pz      :    -0.009529  p :     0.030154
      px      :     0.017441
      py      :     0.022242
      dz2     :    -0.015223  d :     0.014471
      dxz     :     0.000537
      dyz     :     0.016696
      dx2y2   :     0.003305
      dxy     :     0.009156
      f0      :     0.000038  f :     0.001004
      f+1     :     0.000276
      f-1     :     0.000158
      f+2     :     0.000073
      f-2     :     0.000120
      f+3     :     0.000117
      f-3     :     0.000223

  3 H s       :     0.073165  s :     0.073165
      pz      :     0.016665  p :     0.030342
      px      :     0.011654
      py      :     0.002023
      dz2     :     0.000618  d :     0.000923
      dxz     :    -0.000008
      dyz     :     0.000019
      dx2y2   :     0.000132
      dxy     :     0.000163

  4 H s       :     0.021893  s :     0.021893
      pz      :     0.001121  p :     0.007357
      px      :     0.002558
      py      :     0.003678
      dz2     :     0.000003  d :     0.000172
      dxz     :     0.000005
      dyz     :     0.000030
      dx2y2   :     0.000080
      dxy     :     0.000055

  5 H s       :     0.007604  s :     0.007604
      pz      :    -0.000548  p :    -0.000425
      px      :    -0.000818
      py      :     0.000940
      dz2     :     0.000016  d :     0.000121
      dxz     :     0.000025
      dyz     :     0.000027
      dx2y2   :     0.000035
      dxy     :     0.000018

  6 H s       :     0.023360  s :     0.023360
      pz      :    -0.000202  p :     0.007825
      px      :     0.006147
      py      :     0.001880
      dz2     :     0.000086  d :     0.000175
      dxz     :     0.000017
      dyz     :     0.000025
      dx2y2   :     0.000011
      dxy     :     0.000036



                     *******************************
                     * LOEWDIN POPULATION ANALYSIS *
                     *******************************

-------------------------------------------
LOEWDIN ATOMIC CHARGES AND SPIN POPULATIONS
-------------------------------------------
   0 O :    0.161046    0.947345
   1 C :   -0.289142    0.659115
   2 C :    0.142993    0.175944
   3 H :    0.034574    0.152914
   4 H :   -0.019989    0.029228
   5 H :   -0.009092    0.004233
   6 H :   -0.020390    0.031222

----------------------------------------------------
LOEWDIN REDUCED ORBITAL CHARGES AND SPIN POPULATIONS
----------------------------------------------------
CHARGE
  0 O s       :     3.378221  s :     3.378221
      pz      :     1.336736  p :     4.158358
      px      :     1.274545
      py      :     1.547076
      dz2     :     0.030138  d :     0.294131
      dxz     :     0.009457
      dyz     :     0.095212
      dx2y2   :     0.070112
      dxy     :     0.089212
      f0      :     0.000843  f :     0.008244
      f+1     :     0.000141
      f-1     :     0.001408
      f+2     :     0.001454
      f-2     :     0.000574
      f+3     :     0.002075
      f-3     :     0.001749

  1 C s       :     2.677258  s :     2.677258
      pz      :     0.870987  p :     2.643792
      px      :     0.878109
      py      :     0.894696
      dz2     :     0.099875  d :     0.862385
      dxz     :     0.090279
      dyz     :     0.207019
      dx2y2   :     0.238578
      dxy     :     0.226634
      f0      :     0.010186  f :     0.105707
      f+1     :     0.004182
      f-1     :     0.016789
      f+2     :     0.017056
      f-2     :     0.010143
      f+3     :     0.026234
      f-3     :     0.021118

  2 C s       :     2.643086  s :     2.643086
      pz      :     0.923045  p :     2.692063
      px      :     0.891063
      py      :     0.877956
      dz2     :     0.050009  d :     0.488608
      dxz     :     0.129830
      dyz     :     0.098354
      dx2y2   :     0.095557
      dxy     :     0.114858
      f0      :     0.003467  f :     0.033250
      f+1     :     0.005476
      f-1     :     0.004618
      f+2     :     0.003045
      f-2     :     0.005366
      f+3     :     0.006130
      f-3     :     0.005149

  3 H s       :     0.654450  s :     0.654450
      pz      :     0.110738  p :     0.280935
      px      :     0.100483
      py      :     0.069714
      dz2     :     0.008449  d :     0.030041
      dxz     :     0.006506
      dyz     :     0.005464
      dx2y2   :     0.004695
      dxy     :     0.004927

  4 H s       :     0.701564  s :     0.701564
      pz      :     0.085915  p :     0.288101
      px      :     0.088718
      py      :     0.113467
      dz2     :     0.004150  d :     0.030324
      dxz     :     0.003960
      dyz     :     0.006742
      dx2y2   :     0.007760
      dxy     :     0.007712

  5 H s       :     0.702334  s :     0.702334
      pz      :     0.103527  p :     0.276754
      px      :     0.094096
      py      :     0.079131
      dz2     :     0.008022  d :     0.030004
      dxz     :     0.007618
      dyz     :     0.005120
      dx2y2   :     0.004311
      dxy     :     0.004932

  6 H s       :     0.701604  s :     0.701604
      pz      :     0.111143  p :     0.288466
      px      :     0.094192
      py      :     0.083131
      dz2     :     0.008347  d :     0.030321
      dxz     :     0.008089
      dyz     :     0.006933
      dx2y2   :     0.003210
      dxy     :     0.003741


SPIN
  0 O s       :     0.009439  s :     0.009439
      pz      :     0.376231  p :     0.819627
      px      :     0.424556
      py      :     0.018839
      dz2     :     0.009000  d :     0.115109
      dxz     :     0.006480
      dyz     :     0.046640
      dx2y2   :     0.013728
      dxy     :     0.039261
      f0      :     0.000381  f :     0.003169
      f+1     :     0.000036
      f-1     :     0.000539
      f+2     :     0.000546
      f-2     :     0.000412
      f+3     :     0.000747
      f-3     :     0.000509

  1 C s       :     0.006385  s :     0.006385
      pz      :     0.230737  p :     0.433007
      px      :     0.175531
      py      :     0.026739
      dz2     :     0.023535  d :     0.190826
      dxz     :     0.004784
      dyz     :     0.066070
      dx2y2   :     0.001417
      dxy     :     0.095020
      f0      :     0.002066  f :     0.028898
      f+1     :     0.001647
      f-1     :     0.003062
      f+2     :     0.007727
      f-2     :     0.002345
      f+3     :     0.008162
      f-3     :     0.003889

  2 C s       :     0.008652  s :     0.008652
      pz      :     0.005236  p :     0.057868
      px      :     0.024364
      py      :     0.028269
      dz2     :     0.007007  d :     0.102234
      dxz     :     0.011624
      dyz     :     0.038292
      dx2y2   :     0.032916
      dxy     :     0.012395
      f0      :     0.000167  f :     0.007190
      f+1     :     0.002021
      f-1     :     0.001320
      f+2     :     0.000537
      f-2     :     0.000880
      f+3     :     0.000933
      f-3     :     0.001334

  3 H s       :     0.080578  s :     0.080578
      pz      :     0.035022  p :     0.064908
      px      :     0.025412
      py      :     0.004475
      dz2     :     0.005436  d :     0.007428
      dxz     :     0.000042
      dyz     :    -0.000046
      dx2y2   :     0.000724
      dxy     :     0.001273

  4 H s       :     0.018272  s :     0.018272
      pz      :     0.001276  p :     0.009996
      px      :     0.001807
      py      :     0.006914
      dz2     :    -0.000006  d :     0.000960
      dxz     :     0.000014
      dyz     :     0.000140
      dx2y2   :     0.000619
      dxy     :     0.000192

  5 H s       :     0.001510  s :     0.001510
      pz      :     0.000226  p :     0.001756
      px      :     0.000922
      py      :     0.000608
      dz2     :     0.000046  d :     0.000966
      dxz     :     0.000183
      dyz     :     0.000282
      dx2y2   :     0.000302
      dxy     :     0.000152

  6 H s       :     0.019615  s :     0.019615
      pz      :     0.000056  p :     0.010645
      px      :     0.005805
      py      :     0.004785
      dz2     :     0.000478  d :     0.000962
      dxz     :     0.000040
      dyz     :     0.000172
      dx2y2   :     0.000010
      dxy     :     0.000262



                      *****************************
                      * MAYER POPULATION ANALYSIS *
                      *****************************

  NA   - Mulliken gross atomic population
  ZA   - Total nuclear charge
  QA   - Mulliken gross atomic charge
  VA   - Mayer's total valence
  BVA  - Mayer's bonded valence
  FA   - Mayer's free valence

  ATOM       NA         ZA         QA         VA         BVA        FA
  0 O      8.3225     8.0000    -0.3225     2.0419     1.4470     0.5950
  1 C      5.9917     6.0000     0.0083     3.3371     2.7915     0.5456
  2 C      6.5848     6.0000    -0.5848     3.6086     3.5944     0.0142
  3 H      0.7829     1.0000     0.2171     0.9647     0.9555     0.0092
  4 H      0.7860     1.0000     0.2140     1.0270     1.0262     0.0009
  5 H      0.7457     1.0000     0.2543     0.9878     0.9876     0.0001
  6 H      0.7864     1.0000     0.2136     1.0285     1.0275     0.0010

  Mayer bond orders larger than 0.100000
B(  0-O ,  1-C ) :   1.3040 B(  1-C ,  2-C ) :   0.6218 B(  1-C ,  3-H ) :   0.9311 
B(  2-C ,  4-H ) :   1.0131 B(  2-C ,  5-H ) :   0.9255 B(  2-C ,  6-H ) :   1.0131 


-------
TIMINGS
-------

Total SCF time: 0 days 0 hours 0 min 4 sec 

Total time                  ....       4.895 sec
Sum of individual times     ....       4.877 sec  ( 99.6%)

SCF preparation             ....       0.388 sec  (  7.9%)
Fock matrix formation       ....       3.982 sec  ( 81.3%)
  Startup                   ....       0.029 sec  (  0.7% of F)
  Split-RI-J                ....       0.176 sec  (  4.4% of F)
  Chain of spheres X        ....       2.566 sec  ( 64.4% of F)
  XC integration            ....       1.117 sec  ( 28.0% of F)
    XC Preparation          ....       0.000 sec  (  0.0% of XC)
    Basis function eval.    ....       0.075 sec  (  6.7% of XC)
    Density eval.           ....       0.335 sec  ( 30.0% of XC)
    XC-Functional eval.     ....       0.033 sec  (  2.9% of XC)
    XC-Potential eval.      ....       0.584 sec  ( 52.3% of XC)
Diagonalization             ....       0.000 sec  (  0.0%)
Density matrix formation    ....       0.067 sec  (  1.4%)
Total Energy calculation    ....       0.040 sec  (  0.8%)
Population analysis         ....       0.024 sec  (  0.5%)
Orbital Transformation      ....       0.044 sec  (  0.9%)
Orbital Orthonormalization  ....       0.000 sec  (  0.0%)
DIIS solution               ....       0.210 sec  (  4.3%)
SOSCF solution              ....       0.119 sec  (  2.4%)
Finished LeanSCF after   4.9 sec

Maximum memory used throughout the entire LEANSCF-calculation: 14.7 MB
[1741000524.652646] [ohm:3248610:0]        ib_iface.c:1059 UCX  ERROR ibv_create_cq(cqe=256) failed: Connection timed out
[1741000524.652728] [ohm:3248606:0]        ib_iface.c:1059 UCX  ERROR ibv_create_cq(cqe=256) failed: Connection timed out
[1741000524.653055] [ohm:3248608:0]        ib_iface.c:1059 UCX  ERROR ibv_create_cq(cqe=256) failed: Connection timed out
[1741000524.666588] [ohm:3248607:0]        ib_iface.c:1059 UCX  ERROR ibv_create_cq(cqe=256) failed: Connection timed out
[1741000524.667217] [ohm:3248609:0]        ib_iface.c:1059 UCX  ERROR ibv_create_cq(cqe=256) failed: Connection timed out
[1741000524.667352] [ohm:3248605:0]        ib_iface.c:1059 UCX  ERROR ibv_create_cq(cqe=256) failed: Connection timed out
[1741000524.669266] [ohm:3248615:0]        ib_iface.c:1059 UCX  ERROR ibv_create_cq(cqe=256) failed: Connection timed out
[1741000524.671684] [ohm:3248612:0]        ib_iface.c:1059 UCX  ERROR ibv_create_cq(cqe=256) failed: Connection timed out
[1741000524.675206] [ohm:3248611:0]        ib_iface.c:1059 UCX  ERROR ibv_create_cq(cqe=256) failed: Connection timed out
[1741000524.681751] [ohm:3248613:0]        ib_iface.c:1059 UCX  ERROR ibv_create_cq(cqe=256) failed: Connection timed out
[1741000524.693821] [ohm:3248626:0]        ib_iface.c:1059 UCX  ERROR ibv_create_cq(cqe=256) failed: Connection timed out
[1741000524.693814] [ohm:3248634:0]        ib_iface.c:1059 UCX  ERROR ibv_create_cq(cqe=256) failed: Connection timed out
[1741000524.702322] [ohm:3248617:0]        ib_iface.c:1059 UCX  ERROR ibv_create_cq(cqe=256) failed: Connection timed out
[1741000524.702330] [ohm:3248620:0]        ib_iface.c:1059 UCX  ERROR ibv_create_cq(cqe=256) failed: Connection timed out
[1741000524.702570] [ohm:3248630:0]        ib_iface.c:1059 UCX  ERROR ibv_create_cq(cqe=256) failed: Connection timed out
[1741000524.702912] [ohm:3248618:0]        ib_iface.c:1059 UCX  ERROR ibv_create_cq(cqe=256) failed: Connection timed out


           ************************************************************
           *        Program running with 16 parallel MPI-processes    *
           *              working on a common directory               *
           ************************************************************

------------------------------------------------------------------------------
                         ORCA PROPERTY INTEGRAL CALCULATIONS
------------------------------------------------------------------------------

GBWName                                   ... orca.gbw
Number of atoms                           ...      7
Number of basis functions                 ...    182
Max core memory                           ...   1024 MB

Dipole integrals                          ... YES
Quadrupole integrals                      ...  NO
Linear momentum integrals                 ... YES
Angular momentum integrals                ... YES
Higher moments length integrals           ...  NO
Higher moments velocity integrals         ...  NO
Kinetic energy integrals                  ...  NO
GIAO right hand sides                     ...  NO
GIAO dipole derivative integrals          ...  NO
SOC integrals                             ...  NO
EPR diamagnetic integrals (GIAO)          ...  NO
EPR gauge integrals                       ...  NO
Field gradient integrals                  ...  NO (   0 nuclei)
Spin-dipole/Fermi contact integrals       ...  NO (   0 nuclei)
Contact density integrals                 ...  NO (   0 nuclei)
Nucleus-orbit integrals                   ...  NO (   0 nuclei)
Geometric perturbations                   ...  NO (   7 nuclei)

Choice of electric origin   ... Center of mass
Position of electric origin ... (  0.5269,  0.4800, -0.0069) 
Choice of magnetic origin   ... GIAO
Position of magnetic origin ... (  0.0000,  0.0000,  0.0000) 

Calculating integrals                     ... Electric Dipole (Length)     done (  0.0 sec)
Calculating integrals                     ... Linear Momentum              done (  0.0 sec)
Calculating integrals                     ... Angular Momentum  (ElOri)    done (  0.0 sec)

Property integrals calculated in   0.0 sec

Maximum memory used throughout the entire PROPINT-calculation: 10.3 MB
[1741000525.344533] [ohm:3248694:0]        ib_iface.c:1059 UCX  ERROR ibv_create_cq(cqe=256) failed: Connection timed out
[1741000525.345920] [ohm:3248692:0]        ib_iface.c:1059 UCX  ERROR ibv_create_cq(cqe=256) failed: Connection timed out
[1741000525.345930] [ohm:3248690:0]        ib_iface.c:1059 UCX  ERROR ibv_create_cq(cqe=256) failed: Connection timed out
[1741000525.351185] [ohm:3248691:0]        ib_iface.c:1059 UCX  ERROR ibv_create_cq(cqe=256) failed: Connection timed out
[1741000525.351242] [ohm:3248693:0]        ib_iface.c:1059 UCX  ERROR ibv_create_cq(cqe=256) failed: Connection timed out
[1741000525.351392] [ohm:3248689:0]        ib_iface.c:1059 UCX  ERROR ibv_create_cq(cqe=256) failed: Connection timed out
[1741000525.356760] [ohm:3248695:0]        ib_iface.c:1059 UCX  ERROR ibv_create_cq(cqe=256) failed: Connection timed out
[1741000525.357670] [ohm:3248696:0]        ib_iface.c:1059 UCX  ERROR ibv_create_cq(cqe=256) failed: Connection timed out
[1741000525.367051] [ohm:3248703:0]        ib_iface.c:1059 UCX  ERROR ibv_create_cq(cqe=256) failed: Connection timed out
[1741000525.367089] [ohm:3248699:0]        ib_iface.c:1059 UCX  ERROR ibv_create_cq(cqe=256) failed: Connection timed out
[1741000525.369925] [ohm:3248697:0]        ib_iface.c:1059 UCX  ERROR ibv_create_cq(cqe=256) failed: Connection timed out
[1741000525.370379] [ohm:3248701:0]        ib_iface.c:1059 UCX  ERROR ibv_create_cq(cqe=256) failed: Connection timed out
[1741000525.374065] [ohm:3248719:0]        ib_iface.c:1059 UCX  ERROR ibv_create_cq(cqe=256) failed: Connection timed out
[1741000525.375740] [ohm:3248717:0]        ib_iface.c:1059 UCX  ERROR ibv_create_cq(cqe=256) failed: Connection timed out
[1741000525.376080] [ohm:3248714:0]        ib_iface.c:1059 UCX  ERROR ibv_create_cq(cqe=256) failed: Connection timed out
[1741000525.376293] [ohm:3248707:0]        ib_iface.c:1059 UCX  ERROR ibv_create_cq(cqe=256) failed: Connection timed out


           ************************************************************
           *        Program running with 16 parallel MPI-processes    *
           *              working on a common directory               *
           ************************************************************
------------------------------------------------------------------------------
                        ORCA TD-DFT/TDA CALCULATION
------------------------------------------------------------------------------

Input orbitals are from        ... orca.gbw
CI-vector output               ... orca.cis
Solver                         ... FN-2001
Tamm-Dancoff approximation     ... operative
CIS-Integral strategy          ... AO-integrals
Integral handling              ... AO integral Direct
Max. core memory used          ... 512 MB
Reference state                ... UHF
Follow IRoot                   ... off
Number of operators            ... 2
Orbital ranges used for CIS calculation:
 Operator 0:  Orbitals   3... 12  to  11...181

-------------------
XC-INTEGRATION GRID
-------------------

General Integration Accuracy     IntAcc      ... 3.467
Radial Grid Type                 RadialGrid  ... OptM3 with GC (2021)
Angular Grid (max. ang.)         AngularGrid ... 1 (Lebedev-50)
Angular grid pruning method      GridPruning ... 4 (adaptive)
Weight generation scheme         WeightScheme... mBecke (2022)
Basis function cutoff            BFCut       ... 1.0000e-11
Integration weight cutoff        WCut        ... 1.0000e-14
Partially contracted basis set               ... off
Rotationally invariant grid construction     ... off
Angular grids for H and He will be reduced by one unit
Diffuse basis detected: some atoms will have their outermost
                        angular grid increased by 1.

Total number of grid points                  ...     4746
Total number of batches                      ...       77
Average number of points per batch           ...       61
Average number of grid points per atom       ...      678

---------------------
COSX-INTEGRATION GRID
---------------------

General Integration Accuracy     IntAcc      ... 3.067
Radial Grid Type                 RadialGrid  ... OptM3 with GC (2021)
Angular Grid (max. ang.)         AngularGrid ... 1 (Lebedev-50)
Angular grid pruning method      GridPruning ... 4 (adaptive)
Weight generation scheme         WeightScheme... mBecke (2022)
Basis function cutoff            BFCut       ... 1.0000e-11
Integration weight cutoff        WCut        ... 1.0000e-14
Partially contracted basis set               ... on
Rotationally invariant grid construction     ... off
Angular grids for H and He will be reduced by one unit
Diffuse basis detected: some atoms will have their outermost
                        angular grid increased by 1.

Total number of grid points                  ...     2160
Total number of batches                      ...       22
Average number of points per batch           ...       98
Average number of grid points per atom       ...      309

---------------
TD-DFT XC SETUP
---------------

DFT calculation                         ... on
Name of the grid file                   ... orca.grid_cis.tmp
RI-approximation                        ... on
Aux-basis dimension                     ... 0
Functional (TD-DFT)
  Functional kind                       .... Exchange-Correlation
  Functional name                       .... wB97M-V exchange-correlation functional
  Functional family                     .... Hybrid MGGA
  Functional refs                              
    [ 0] N. Mardirossian and M. Head-Gordon.,  J. Chem. Phys. 144, 214110 (2016), doi: 10.1063/1.4952647
  Fraction of HF Exchange (short range) .... 0.1500
  Fraction of HF Exchange (long range)  .... 1.0000
  Range separation parameter mu         .... 0.3000
  Functional external parameters        .... 17
    Parameter  0 _cx00      =  8.500000e-01 : u^00 coefficient for exchange
    Parameter  1 _cx01      =  1.007000e+00 : u^01 coefficient for exchange
    Parameter  2 _cx10      =  2.590000e-01 : u^10 coefficient for exchange
    Parameter  3 _css00     =  4.430000e-01 : u^00 coefficient for same-spin correlation
    Parameter  4 _css04     = -1.437000e+00 : u^04 coefficient for same-spin correlation
    Parameter  5 _css10     = -4.535000e+00 : u^10 coefficient for same-spin correlation
    Parameter  6 _css20     = -3.390000e+00 : u^20 coefficient for same-spin correlation
    Parameter  7 _css43     =  4.278000e+00 : u^43 coefficient for same-spin correlation
    Parameter  8 _cos00     =  1.000000e+00 : u^00 coefficient for opposite-spin correlation
    Parameter  9 _cos10     =  1.358000e+00 : u^10 coefficient for opposite-spin correlation
    Parameter 10 _cos20     =  2.924000e+00 : u^20 coefficient for opposite-spin correlation
    Parameter 11 _cos21     = -8.812000e+00 : u^21 coefficient for opposite-spin correlation
    Parameter 12 _cos60     = -1.390000e+00 : u^60 coefficient for opposite-spin correlation
    Parameter 13 _cos61     =  9.142000e+00 : u^61 coefficient for opposite-spin correlation
    Parameter 14 _alpha     =  1.000000e+00 : fraction of HF exchange
    Parameter 15 _beta      = -8.500000e-01 : fraction of short-range exchange
    Parameter 16 _omega     =  3.000000e-01 : range-separation constant
Hybrid DFT                              ... on
   Exchange mixing (TD-DFT)             ...  0.150
   GGA exch. scaling (TD-DFT)           ...  0.000
   GGA corr. scaling (TD-DFT)           ...  1.000
Range-Separated Exchange                ... on
   Range Range separation parameter mu  .... 0.300
   Max. amount of RS exchange (TD-DFT)  ...  0.850

Building densities             ... done
Calculating rho(r) on the grid ... done
Building xc-kernel on the grid ... done
                    *** TD-DFT CALCULATION INITIALIZED ***

------------------------
DAVIDSON-DIAGONALIZATION
------------------------

Dimension of the eigenvalue problem            ...   1710
Number of roots to be determined               ...      2
Maximum size of the expansion space            ...     20
Maximum number of iterations                   ...    100
Convergence tolerance for the residual         ...    2.500e-07
Convergence tolerance for the energies         ...    2.500e-07
Orthogonality tolerance                        ...    1.000e-14
Level Shift                                    ...    0.000e+00
Constructing the preconditioner                ... o.k.
Building the initial guess                     ... o.k.
Number of trial vectors determined             ...     20


                       ****Iteration    0****
   Time for iteration     :  TOTAL=0.2 TRAFO=0.0 COSX=0.2
   Size of expansion space: 6
   Lowest Energy          :    -0.133424873079
   Maximum Energy change  :     0.133424873079 (vector 0)
   Maximum residual norm  :     0.004427155958

                       ****Iteration    1****
   Time for iteration     :  TOTAL=0.1 TRAFO=0.0 RIJ=0.0 COSX=0.1
   Size of expansion space: 8
   Lowest Energy          :    -0.136693509240
   Maximum Energy change  :     0.012543488237 (vector 1)
   Maximum residual norm  :     0.000468604603

                       ****Iteration    2****
   Time for iteration     :  TOTAL=0.1 TRAFO=0.0 COSX=0.1
   Size of expansion space: 10
   Lowest Energy          :    -0.136726702655
   Maximum Energy change  :     0.001157486679 (vector 1)
   Maximum residual norm  :     0.000040304926

                       ****Iteration    3****
   Time for iteration     :  TOTAL=0.1 TRAFO=0.0 COSX=0.1
   Size of expansion space: 12
   Lowest Energy          :    -0.136727245677
   Maximum Energy change  :     0.000122576555 (vector 1)
   Maximum residual norm  :     0.000052735722

                       ****Iteration    4****
   Time for iteration     :  TOTAL=0.1 TRAFO=0.0 COSX=0.1
   Size of expansion space: 14
   Lowest Energy          :    -0.136727257458
   Maximum Energy change  :     0.015850989187 (vector 1)
   Maximum residual norm  :     0.007143960236

                       ****Iteration    5****
   Time for iteration     :  TOTAL=0.1 TRAFO=0.0 COSX=0.1
   Size of expansion space: 16
   Lowest Energy          :    -0.136727257680
   Maximum Energy change  :     0.006305399029 (vector 1)
   Maximum residual norm  :     0.000440544905

                       ****Iteration    6****
   Time for iteration     :  TOTAL=0.1 TRAFO=0.0 COSX=0.1
   Size of expansion space: 18
   Lowest Energy          :    -0.136727257683
   Maximum Energy change  :     0.000390235089 (vector 1)
   Maximum residual norm  :     0.000040499705

                       ****Iteration    7****
   Time for iteration     :  TOTAL=0.1 TRAFO=0.0 COSX=0.1
   Size of expansion space: 20
   Lowest Energy          :    -0.136727257683
   Maximum Energy change  :     0.000036544170 (vector 1)
   Maximum residual norm  :     0.000002386309
   Rebuilding the expansion space

                       ****Iteration    8****
   Time for iteration     :  TOTAL=0.2 TRAFO=0.0 RIJ=0.0 COSX=0.1
   Size of expansion space: 4
   Lowest Energy          :    -0.136727027207
   Maximum Energy change  :     0.000000359618 (vector 1)
   Maximum residual norm  :     0.000000154670

      *** CONVERGENCE OF RESIDUAL NORM REACHED ***

Storing the converged CI vectors               ... orca.cis3

                 *** DAVIDSON DONE ***

Total time for solving the CIS problem:     1.349sec

---------------------
SF-TDA EXCITED STATES
---------------------

the weight of the individual excitations are printed if larger than 1.0e-02

UHF/UKS reference: multiplicity estimated based on rounded <S**2> value, RELEVANCE IS LIMITED!

(SPIN-FLIP GROUND STATE)
STATE  1:  E=  -0.136727 au     -3.721 eV   -30008.1 cm**-1 <S**2> =   0.019863 Mult 1
    12a ->  11b  :     0.977886 (c= -0.98888121)

STATE  2:  E=   0.033183 au      0.903 eV     7282.8 cm**-1 <S**2> =   1.144613 Mult 3
    12a ->  15b  :     0.247662 (c=  0.49765621)
    12a ->  16b  :     0.688113 (c= -0.82952599)
    12a ->  18b  :     0.012981 (c= -0.11393560)
    12a ->  21b  :     0.011803 (c=  0.10863941)
    12a ->  26b  :     0.021044 (c=  0.14506379)


-----------------------------
TD-DFT/TDA-EXCITATION SPECTRA
-----------------------------

Center of mass = (  0.5269,  0.4800, -0.0069)
Generating CIS-Spin-flip transition densities           ... done

UHF/UKS reference: multiplicity estimated based on rounded <S**2> value, use it judiciously!

----------------------------------------------------------------------------------------------------
          SPIN FLIP ABSORPTION SPECTRUM VIA TRANSITION ELECTRIC DIPOLE MOMENTS    
----------------------------------------------------------------------------------------------------
     Transition      Energy     Energy  Wavelength fosc(D2)      D2        DX        DY        DZ   
                      (eV)      (cm-1)    (nm)                 (au**2)    (au)      (au)      (au)  
----------------------------------------------------------------------------------------------------
  1-3A  ->  2-3A    4.623483   37290.9   268.2   0.000264425   0.00233  -0.03034   0.01340   0.03513

----------------------------------------------------------------------------------------------------
          SPIN FLIP ABSORPTION SPECTRUM VIA TRANSITION VELOCITY DIPOLE MOMENTS    
----------------------------------------------------------------------------------------------------
     Transition      Energy     Energy  Wavelength fosc(P2)      P2        PX        PY        PZ   
[...]
      f-1     :     0.000187
      f+2     :     0.003615
      f-2     :    -0.001231
      f+3     :     0.005056
      f-3     :    -0.001187
  2 C s       :     0.011948  s :     0.011948
      pz      :     0.008942  p :     0.086991
      px      :     0.035264
      py      :     0.042785
      dz2     :    -0.008867  d :    -0.111274
      dxz     :    -0.009061
      dyz     :    -0.040947
      dx2y2   :    -0.037779
      dxy     :    -0.014619
      f0      :    -0.000078  f :    -0.007344
      f+1     :    -0.002041
      f-1     :    -0.001418
      f+2     :    -0.000474
      f-2     :    -0.000945
      f+3     :    -0.001050
      f-3     :    -0.001338
  3 H s       :     0.098917  s :     0.098917
      pz      :    -0.038078  p :    -0.073537
      px      :    -0.029084
      py      :    -0.006374
      dz2     :    -0.005246  d :    -0.008142
      dxz     :    -0.000308
      dyz     :    -0.000410
      dx2y2   :    -0.000827
      dxy     :    -0.001351
  4 H s       :    -0.019700  s :    -0.019700
      pz      :    -0.000571  p :    -0.003753
      px      :     0.000529
      py      :    -0.003711
      dz2     :     0.000060  d :     0.001302
      dxz     :     0.000044
      dyz     :     0.000215
      dx2y2   :     0.000933
      dxy     :     0.000049
  5 H s       :     0.002020  s :     0.002020
      pz      :     0.000376  p :     0.004706
      px      :     0.002069
      py      :     0.002261
      dz2     :     0.000038  d :     0.001272
      dxz     :     0.000261
      dyz     :     0.000372
      dx2y2   :     0.000490
      dxy     :     0.000112
  6 H s       :    -0.021005  s :    -0.021005
      pz      :     0.000596  p :    -0.004380
      px      :    -0.003266
      py      :    -0.001709
      dz2     :     0.000617  d :     0.001293
      dxz     :     0.000138
      dyz     :     0.000159
      dx2y2   :     0.000041
      dxy     :     0.000337


                      *****************************
                      * MAYER POPULATION ANALYSIS *
                      *****************************

  NA   - Mulliken gross atomic population
  ZA   - Total nuclear charge
  QA   - Mulliken gross atomic charge
  VA   - Mayer's total valence
  BVA  - Mayer's bonded valence
  FA   - Mayer's free valence

  ATOM       NA         ZA         QA         VA         BVA        FA
  0 O      8.2728     8.0000    -0.2728     2.0272     1.4424     0.5848
  1 C      5.7672     6.0000     0.2328     3.4073     2.8503     0.5570
  2 C      6.7083     6.0000    -0.7083     3.6685     3.6304     0.0382
  3 H      0.9145     1.0000     0.0855     1.0900     1.0619     0.0281
  4 H      0.7921     1.0000     0.2079     1.0491     1.0407     0.0084
  5 H      0.7517     1.0000     0.2483     0.9973     0.9963     0.0010
  6 H      0.7934     1.0000     0.2066     1.0553     1.0463     0.0089

  Mayer bond orders larger than 0.100000
B(  0-O ,  1-C ) :   1.2975 B(  1-C ,  2-C ) :   0.6097 B(  1-C ,  3-H ) :   0.9949 
B(  2-C ,  4-H ) :   1.0144 B(  2-C ,  5-H ) :   0.9282 B(  2-C ,  6-H ) :   1.0149 



-------
TIMINGS
-------

Total TD-DFT gradient time  ....        4.863 sec

Fock matrix formation       ....       1.056 sec  ( 21.7%)
  Coulomb formation         ....       0.822 sec  ( 77.8% of F)
  XC integration            ....       0.234 sec  ( 22.2% of F)
Z-vector equation           ....       1.283 sec  ( 26.4%)
Densities                   ....       0.000 sec  (  0.0%)
One electron gradient       ....       0.009 sec  (  0.2%)
Two electron gradient       ....       0.000 sec  (  0.0%)
RI-J Coulomb gradient       ....       0.094 sec  (  1.9%)
COSX gradient               ....       0.380 sec  (  7.8%)
XC gradient                 ....       1.834 sec  ( 37.7%)

Maximum memory used throughout the entire CIS-calculation: 35.8 MB
=> NOW LEAVING ORCA_CIS


-------------------------------------------------------------------------------
                          DFT DISPERSION CORRECTION                            
                                                                               
                              DFTD3 V3.1  Rev 1                                
                          USING Becke-Johnson damping                          
-------------------------------------------------------------------------------
The WB97M functional is recognized
Active option DFTDOPT                   ...         4   

molecular C6(AA) [au] = 395.083337 


            DFT-D V3
 parameters
 s6 scaling factor         :     1.0000 
 a1 scaling factor         :     0.5660 
 s8 scaling factor         :     0.3908 
 a2 scaling factor         :     3.1280 
 ad hoc parameters k1-k3   :    16.0000     1.3333    -4.0000 

 Edisp/kcal,au: -3.458974649483  -0.005512226386 
 E6   /kcal   :  -2.790046705 
 E8   /kcal   :  -0.668927945 
 % E8         :  19.338908560 

-------------------------   ----------------
Dispersion correction           -0.005512226
-------------------------   ----------------


-------------------------   --------------------
FINAL SINGLE POINT ENERGY      -153.751386315848
-------------------------   --------------------

[1741000532.353584] [ohm:3248794:0]        ib_iface.c:1059 UCX  ERROR ibv_create_cq(cqe=256) failed: Connection timed out
[1741000532.353583] [ohm:3248800:0]        ib_iface.c:1059 UCX  ERROR ibv_create_cq(cqe=256) failed: Connection timed out
[1741000532.354154] [ohm:3248796:0]        ib_iface.c:1059 UCX  ERROR ibv_create_cq(cqe=256) failed: Connection timed out
[1741000532.361349] [ohm:3248798:0]        ib_iface.c:1059 UCX  ERROR ibv_create_cq(cqe=256) failed: Connection timed out
[1741000532.368821] [ohm:3248813:0]        ib_iface.c:1059 UCX  ERROR ibv_create_cq(cqe=256) failed: Connection timed out
[1741000532.368810] [ohm:3248803:0]        ib_iface.c:1059 UCX  ERROR ibv_create_cq(cqe=256) failed: Connection timed out
[1741000532.368899] [ohm:3248806:0]        ib_iface.c:1059 UCX  ERROR ibv_create_cq(cqe=256) failed: Connection timed out
[1741000532.369393] [ohm:3248795:0]        ib_iface.c:1059 UCX  ERROR ibv_create_cq(cqe=256) failed: Connection timed out
[1741000532.369416] [ohm:3248797:0]        ib_iface.c:1059 UCX  ERROR ibv_create_cq(cqe=256) failed: Connection timed out
[1741000532.369516] [ohm:3248801:0]        ib_iface.c:1059 UCX  ERROR ibv_create_cq(cqe=256) failed: Connection timed out
[1741000532.369538] [ohm:3248793:0]        ib_iface.c:1059 UCX  ERROR ibv_create_cq(cqe=256) failed: Connection timed out
[1741000532.369627] [ohm:3248799:0]        ib_iface.c:1059 UCX  ERROR ibv_create_cq(cqe=256) failed: Connection timed out
[1741000532.371225] [ohm:3248805:0]        ib_iface.c:1059 UCX  ERROR ibv_create_cq(cqe=256) failed: Connection timed out
[1741000532.374592] [ohm:3248818:0]        ib_iface.c:1059 UCX  ERROR ibv_create_cq(cqe=256) failed: Connection timed out
[1741000532.391709] [ohm:3248821:0]        ib_iface.c:1059 UCX  ERROR ibv_create_cq(cqe=256) failed: Connection timed out
[1741000532.392043] [ohm:3248808:0]        ib_iface.c:1059 UCX  ERROR ibv_create_cq(cqe=256) failed: Connection timed out


           ************************************************************
           *        Program running with 16 parallel MPI-processes    *
           *              working on a common directory               *
           ************************************************************

------------------------------------------------------------------------------
                              ORCA PROPERTY CALCULATIONS
------------------------------------------------------------------------------

GBWName                                 ... orca.gbw
Number of atoms                         ...      7
Number of basis functions               ...    182
Max core memory                         ...   1024 MB

Electric properties:
Dipole moment                           ... YES
Quadrupole moment                       ...  NO
Static polarizability (Dipole/Dipole)   ...  NO
Static polarizability (Dipole/Quad.)    ...  NO
Static polarizability (Quad./Quad.)     ...  NO
Static polarizability (Velocity)        ...  NO

Atomic electric properties:
Dipole moment                           ...  NO
Quadrupole moment                       ...  NO
Static polarizability                   ...  NO

Choice of electric origin               ... Center of mass
Position of electric origin             ...     0.526950     0.479960    -0.006918

General magnetic properties:
Magnetizability                         ...  NO

EPR properties:
g-Tensor (aka g-matrix)                 ...  NO
Zero-Field splitting spin-orbit         ...  NO
Zero-field splitting spin-spin          ...  NO
Hyperfine couplings                     ...  NO (   0 nuclei)
Quadrupole couplings                    ...  NO (   0 nuclei)
Contact density                         ...  NO (   0 nuclei)

NMR properties:
Chemical shifts                         ...  NO (   0 nuclei)
Spin-rotation constants                 ...  NO (   0 nuclei)
Spin-spin couplings                     ...  NO (   0 nuclei,    0 pairs)

Choice of magnetic origin               ... GIAO
Position of magnetic origin             ...     0.000000     0.000000     0.000000

Properties with geometric perturbations:
SCF Hessian                             ...  NO
IR spectrum                             ...  NO
VCD spectrum                            ...  NO
X-ray spectroscopy properties:
SCF XES/XAS/RIXS spectra                ...  NO


-------------
DIPOLE MOMENT
-------------

Method             : SCF
Type of density    : Electron Density
Multiplicity       :   3
Irrep              :   0
Energy             :  -153.7790569386363586 Eh
Relativity type    : 
Basis              : AO
                                X                 Y                 Z
Electronic contribution:      1.621482490       3.545327641       0.051951956
Nuclear contribution   :     -1.827808156      -4.211166857       0.023343290
                        -----------------------------------------
Total Dipole Moment    :     -0.206325665      -0.665839216       0.075295246
                        -----------------------------------------
Magnitude (a.u.)       :      0.701128744
Magnitude (Debye)      :      1.782127639



--------------------
Rotational spectrum 
--------------------
 
Rotational constants in cm-1:             2.214126             0.317527             0.292656 
Rotational constants in MHz :         66377.820087          9519.210438          8773.598116 

Dipole components along the rotational axes: 
x,y,z [a.u.] :     0.668446     0.211564    -0.001486 
x,y,z [Debye]:     1.699055     0.537752    -0.003777 

 

-------------
DIPOLE MOMENT
-------------

Method             : TDA/CIS
Type of density    : Electron Density
Level              : Relaxed density
State              :   2
Multiplicity       :   3
Irrep              :   0
Energy             :     0.0000000000000000 Eh
Relativity type    : 
Basis              : AO
                                X                 Y                 Z
Electronic contribution:      1.582015951       3.589452371       0.006313916
Nuclear contribution   :     -1.827808156      -4.211166857       0.023343290
                        -----------------------------------------
Total Dipole Moment    :     -0.245792204      -0.621714486       0.029657206
                        -----------------------------------------
Magnitude (a.u.)       :      0.669195233
Magnitude (Debye)      :      1.700959105



--------------------
Rotational spectrum 
--------------------
 
Rotational constants in cm-1:             2.214126             0.317527             0.292656 
Rotational constants in MHz :         66377.820087          9519.210438          8773.598116 

Dipole components along the rotational axes: 
x,y,z [a.u.] :     0.654758     0.138163    -0.005000 
x,y,z [Debye]:     1.664263     0.351181    -0.012710 

 

Dipole moment calculation done in   0.0 sec 

Maximum memory used throughout the entire PROP-calculation: 7.5 MB
[1741000533.036745] [ohm:3248895:0]        ib_iface.c:1059 UCX  ERROR ibv_create_cq(cqe=256) failed: Connection timed out
[1741000533.036808] [ohm:3248889:0]        ib_iface.c:1059 UCX  ERROR ibv_create_cq(cqe=256) failed: Connection timed out
[1741000533.036809] [ohm:3248898:0]        ib_iface.c:1059 UCX  ERROR ibv_create_cq(cqe=256) failed: Connection timed out
[1741000533.039045] [ohm:3248891:0]        ib_iface.c:1059 UCX  ERROR ibv_create_cq(cqe=256) failed: Connection timed out
[1741000533.039070] [ohm:3248893:0]        ib_iface.c:1059 UCX  ERROR ibv_create_cq(cqe=256) failed: Connection timed out
[1741000533.046831] [ohm:3248888:0]        ib_iface.c:1059 UCX  ERROR ibv_create_cq(cqe=256) failed: Connection timed out
[1741000533.047343] [ohm:3248890:0]        ib_iface.c:1059 UCX  ERROR ibv_create_cq(cqe=256) failed: Connection timed out
[1741000533.047312] [ohm:3248892:0]        ib_iface.c:1059 UCX  ERROR ibv_create_cq(cqe=256) failed: Connection timed out
[1741000533.047512] [ohm:3248894:0]        ib_iface.c:1059 UCX  ERROR ibv_create_cq(cqe=256) failed: Connection timed out
[1741000533.053708] [ohm:3248900:0]        ib_iface.c:1059 UCX  ERROR ibv_create_cq(cqe=256) failed: Connection timed out
[1741000533.053795] [ohm:3248896:0]        ib_iface.c:1059 UCX  ERROR ibv_create_cq(cqe=256) failed: Connection timed out
[1741000533.054332] [ohm:3248902:0]        ib_iface.c:1059 UCX  ERROR ibv_create_cq(cqe=256) failed: Connection timed out
[1741000533.054327] [ohm:3248910:0]        ib_iface.c:1059 UCX  ERROR ibv_create_cq(cqe=256) failed: Connection timed out
[1741000533.055181] [ohm:3248917:0]        ib_iface.c:1059 UCX  ERROR ibv_create_cq(cqe=256) failed: Connection timed out
[1741000533.055496] [ohm:3248904:0]        ib_iface.c:1059 UCX  ERROR ibv_create_cq(cqe=256) failed: Connection timed out
[1741000533.059767] [ohm:3248914:0]        ib_iface.c:1059 UCX  ERROR ibv_create_cq(cqe=256) failed: Connection timed out

--------------------------------
SUGGESTED CITATIONS FOR THIS RUN
--------------------------------

Below you find a list of papers that are relevant to this ORCA run
We neither can nor want to force you to cite these papers, but we appreciate if you do
You receive ORCA, which is the product of decades of hard work by many enthusiastic individuals, for free
The only thing we kindly ask in return is that you cite our papers,
We deeply appreciate it, if you show your appreciation for ORCA by not just citing the generic ORCA reference.

Please note that relegating all ORCA citations to the supporting information does *not* help us.
SI sections are not indexed - citations you put there will not count into any citation statistics
But we need these citations in order to attract the funding resources that allow us to do what we are doing

Therefore, if you are a happy ORCA user, please consider citing a few of the papers listed below in the main body of your paper

In addition to the list printed below, the program has created the file orca.bibtex that contains the list in bibtex format
You can import this file easily into all common literature databanks and citation aid programs


List of essential papers. We consider these as the minimum necessary citations

  1. Neese,F.
     Software update: the ORCA program system, version 5.0
     WIRES Comput. Molec. Sci., 2022 12(1)e1606
     doi.org/10.1002/wcms.1606

List of papers to cite with high priority. The work reported in these papers was absolutely
necessary for this run to complete.
Our perspective: the developers of density functionals and basis sets usually get cited in chemistry papers
Good! But without the algorithms to do something with them, the functionals or basis sets would not do anything.
Hence, in our opinion, the algorithm design and method developments papers are equally worthy of getting cited

  1. Neese,F.; Olbrich,G.
     Efficient use of the resolution of the identity approximation in time-dependent density functional calculations with hybrid density functionals
     Chem. Phys. Lett., 2002 362 170-178
     doi.org/10.1016/s0009-2614(02)01053-9
  2. Neese,F.
     An improvement of the resolution of the identity approximation for the formation of the Coulomb matrix
     J. Comp. Chem., 2003 24(14)1740-1747
     doi.org/10.1002/jcc.10318
  3. Neese,F.; Wennmohs,F.; Hansen,A.; Becker,U.
     Efficient, approximate and parallel Hartree-Fock and hybrid DFT calculations. A 'chain-of-spheres' algorithm for the Hartree-Fock exchange
     Chem. Phys., 2009 356(1-3)98-109
     doi.org/10.1016/j.chemphys.2008.10.036
  4. Petrenko,T.; Kossmann,S.; Neese,F.
     Efficient time-dependent density functional theory approximations for hybrid density functionals: Analytical gradients and parallelization
     J. Chem. Phys., 2011 134 054116
     doi.org/10.1063/1.3533441
  5. Helmich-Paris,B.; de Souza,B.; Neese,F.; Izsák,R.
     An improved chain of spheres for exchange algorithm
     J. Chem. Phys., 2021 155 104109
     doi.org/doi: 10.1063/5.0058766.
  6. Neese,F.
     The SHARK Integral Generation and Digestion System
     J. Comp. Chem., 2022  1-16
     doi.org/10.1002/jcc.26942
  7. Lehtola,S.; Steigemann,C.; Oliveira,M.; Marques,M.
     Recent developments in Libxc - A comprehensive library of functionals for density functional theory
     Software X, 2018 7 
     doi.org/10.1016/j.softx.2017.11.002
  8. Grimme,S.; Antony,J.; Ehrlich,S.; Krieg,H.
     A consistent and accurate ab initio parametrization of density functional dispersion correction (DFT-D) for the 94 elements H-Pu
     J. Chem. Phys., 2010 132 154104-XXXX
     doi.org/10.1063/1.3382344
  9. Grimme,S.; Ehrlich,S.; Goerigk,L.
     Effect of the damping function in dispersion corrected density functional theory
     J. Comput. Chem., 2011 32(7)1456-1465
     doi.org/10.1002/jcc.21759

List of suggested additional citations. These are papers that are important in the 'surrounding' of 
of this run, or papers that preceded the highly important papers. If you like your results we are grateful for a citation.

  1. Izsak,R.; Neese,F.
     An overlap fitted chain of spheres exchange method
     J. Chem. Phys., 2011 135 144105
     doi.org/10.1063/1.3646921
  2. Izsak,R.; Hansen,A.; Neese,F.
     The resolution of identity and chain of spheres approximations for the LPNO-CCSD singles Fock term
     Molec. Phys., 2012 110 2413-2417
     doi.org/10.1080/00268976.2012.687466
  3. Neese,F.
     The ORCA program system
     WIRES Comput. Molec. Sci., 2012 2(1)73-78
     doi.org/10.1002/wcms.81
  4. Izsak,R.; Neese,F.; Klopper,W.
     Robust fitting techniques in the chain of spheres approximation to the Fock exchange: The role of the complementary space
     J. Chem. Phys., 2013 139 
     doi.org/10.1063/1.4819264
  5. Neese,F.
     Software update: the ORCA program system, version 4.0
     WIRES Comput. Molec. Sci., 2018 8(1)1-6
     doi.org/10.1002/wcms.1327
  6. Neese,F.; Wennmohs,F.; Becker,U.; Riplinger,C.
     The ORCA quantum chemistry program package
     J. Chem. Phys., 2020 152 Art. No. L224108
     doi.org/10.1063/5.0004608

List of optional additional citations

  1. Neese,F.
     Approximate second-order SCF convergence for spin unrestricted wavefunctions
     Chem. Phys. Lett., 2000 325(1-3)93-98
     doi.org/10.1016/s0009-2614(00)00662-x

Timings for individual modules:

Sum of individual times          ...       15.310 sec (=   0.255 min)
Startup calculation              ...        1.025 sec (=   0.017 min)   6.7 %
SCF iterations                   ...        5.963 sec (=   0.099 min)  38.9 %
Property integrals               ...        0.682 sec (=   0.011 min)   4.5 %
Property calculations            ...        0.684 sec (=   0.011 min)   4.5 %
CIS module                       ...        6.957 sec (=   0.116 min)  45.4 %
                             ****ORCA TERMINATED NORMALLY****
TOTAL RUN TIME: 0 days 0 hours 0 minutes 16 seconds 23 msec
