30
Properties=species:S:1:pos:R:3:momenta:R:3:forces:R:3 Coordinates=T from=T ORCA-job=T orca=T E=T -908.934999320434=T energy=-24729.266942518 free_energy=-24729.266942518 stress="1.6911426375307332e-07 -1.9830267142893325e-08 1.3182438488715867e-06 -1.9830267142893325e-08 1.0180145117374792e-06 -8.542474030653943e-08 1.3182438488715867e-06 -8.542474030653943e-08 -2.994542948930751e-06" pbc="F F F"
O        2.51498806       1.24316209      -0.36538179       0.18430943      -0.05676197      -0.21413983      -0.02583734      -0.18493897       0.02915538
O       -0.78563224       0.83827801      -2.39929990      -0.18344186       0.12116395       0.42426909       0.33993738      -0.13112947      -1.42217913
O        0.57226374      -2.68773982      -1.56216526       0.09538170       0.10343555       0.09679548       0.08088629       0.00264523       0.09559572
O       -2.48216234      -1.56734441       1.06767669      -0.27184229      -0.04509713       0.01370770       0.07188495       0.05609659       0.15776363
N        0.59664060      -2.11134488       0.63852404       0.14460338      -0.14416467      -0.11573755      -0.15095149      -0.11665954       0.20382235
N       -1.85590013       0.58562085       1.42368839      -0.34073862      -0.36434908      -0.20858014       0.46052308       0.62075063      -0.01321665
N        1.61781913      -0.76538060      -0.92574788      -0.09099572       0.05296875      -0.10342929       0.17896361       0.16656066      -0.07181371
N       -1.68939785      -0.31613426      -0.67074803      -0.13920673       0.30086690      -0.31500591      -0.44154597      -1.24725289       0.02908574
C        1.44218194       0.00347014       1.35579113       0.30102791      -0.04010536       0.10126918       0.05325781       0.10575610      -0.27022238
C       -0.84872659       1.91674857      -0.29036409      -0.33827009       0.26629344       1.00352223       0.93847049      -1.00830019      -4.73347258
C        0.81372213      -1.15512161       1.59996237       0.06257620      -0.20295795      -0.02118790      -0.30354184       0.09007600       0.35609609
C       -1.24889087       1.74201193       0.99849763       0.01926921       0.12707869      -0.80411750      -1.03944318       0.71640015       5.23710844
C        1.71567817       1.05025400       2.38415753       0.12398735      -0.00867973       0.00512282       0.12457573      -0.43399223       0.43546559
C       -0.18713177       3.14857351      -0.78646162       0.03201135       0.09584167      -0.14007043      -0.53679288       0.03071451       0.51481663
C        1.91712882       0.23967740      -0.01023074      -0.04089602      -0.13227874       0.10075380      -0.00469951       0.30463332      -0.01240283
C       -1.08853891       0.81611240      -1.22889746      -0.22718873      -0.48723273      -0.52338572       0.32705884       1.73867672       1.69427129
C        0.91299742      -1.91954758      -0.68869398       0.22505290       0.08522268       0.02195238      -0.26340307      -0.15379951      -0.19690098
C       -2.04179594      -0.52122872       0.64131388       0.27430723       0.10058936       0.41009041      -0.07064290      -0.32934994      -0.87736201
H        0.46726238      -1.40304967       2.60247765       0.12474645      -0.00819289       0.07609226      -0.03911547       0.03857936      -0.29311565
H       -1.09869486       2.52465505       1.76091343       0.05387100       0.12924464       0.08188355      -0.17066720      -0.60431401      -0.43452402
H        1.36026097       2.00798857       2.07083030      -0.00531197       0.02973470       0.09809833      -0.15678833       0.47994589      -0.29142384
H        1.23142524       0.80952199       3.33927529      -0.01247026       0.03794980      -0.02192701       0.09455438      -0.03087414      -0.24622062
H        2.78933385       1.15174978       2.55553977       0.08352828      -0.02897140      -0.01444284      -0.06760358      -0.01983856       0.00174854
H       -0.73538886       3.57994518      -1.63673770       0.00867955       0.02227589      -0.02920767       0.11912886      -0.20338103       0.11282114
H       -0.11797779       3.90355705       0.00138563       0.01478115       0.02266281       0.04633807      -0.03840813      -0.12673828      -0.07558167
H        0.81246264       2.92062426      -1.12299207       0.01291361       0.02969104       0.04675423       0.31172486      -0.13372038      -0.19069837
H       -0.02474814      -2.88775755       0.83722629      -0.00140834      -0.06195467       0.02678645       0.17686578       0.19596708      -0.11569900
H       -2.10961136       0.47585082       2.38642064      -0.02733398      -0.00284411      -0.01307205       0.00275413      -0.02824667       0.15068733
H        1.80925495      -0.54946508      -1.89524185      -0.05840765       0.06687847      -0.01991192      -0.03168226      -0.07212291       0.07520895
H       -1.80004801      -1.12155784      -1.28297782      -0.02353444      -0.00830790      -0.00922021       0.06053696       0.27785649       0.15118660
