
                                 *****************
                                 * O   R   C   A *
                                 *****************

                                            #,                                       
                                            ###                                      
                                            ####                                     
                                            #####                                    
                                            ######                                   
                                           ########,                                 
                                     ,,################,,,,,                         
                               ,,#################################,,                 
                          ,,##########################################,,             
                       ,#########################################, ''#####,          
                    ,#############################################,,   '####,        
                  ,##################################################,,,,####,       
                ,###########''''           ''''###############################       
              ,#####''   ,,,,##########,,,,          '''####'''          '####       
            ,##' ,,,,###########################,,,                        '##       
           ' ,,###''''                  '''############,,,                           
         ,,##''                                '''############,,,,        ,,,,,,###''
      ,#''                                            '''#######################'''  
     '                                                          ''''####''''         
             ,#######,   #######,   ,#######,      ##                                
            ,#'     '#,  ##    ##  ,#'     '#,    #''#        ,####,   ,####,        
            ##       ##  ##   ,#'  ##            #'  '#       #'       #'  '#        
            ##       ##  #######   ##           ,######,      #####,   #    #        
            '#,     ,#'  ##    ##  '#,     ,#' ,#      #,     #,   #   #,  ,#        
             '#######'   ##     ##  '#######'  #'      '#     '####' # '####'        



                #########################################################
                #                        -***-                          #
                #          Department of theory and spectroscopy        #
                #                                                       #
                #                      Frank Neese                      #
                #                                                       #
                #     Directorship, Architecture, Infrastructure        #
                #                    SHARK, DRIVERS                     #
                #        Core code/Algorithms in most modules           #
                #                                                       #
                #        Max Planck Institute fuer Kohlenforschung      #
                #                Kaiser Wilhelm Platz 1                 #
                #                 D-45470 Muelheim/Ruhr                 #
                #                      Germany                          #
                #                                                       #
                #                  All rights reserved                  #
                #                        -***-                          #
                #########################################################


                         Program Version 6.0.0  -   RELEASE  -


 With contributions from (in alphabetic order):
   Daniel Aravena         : Magnetic Suceptibility
   Michael Atanasov       : Ab Initio Ligand Field Theory (pilot matlab implementation)
   Alexander A. Auer      : GIAO ZORA, VPT2 properties, NMR spectrum
   Ute Becker             : All parallelization in ORCA, NUMFREQ, NUMCALC
   Giovanni Bistoni       : ED, misc. LED, open-shell LED, HFLD
   Martin Brehm           : Molecular dynamics
   Dmytro Bykov           : pre 5.0 version of the SCF Hessian
   Marcos Casanova-Páez   : Triplet and SCS-CIS(D). UHF-(DLPNO)-IP/EA/STEOM-CCSD. UHF-CVS-IP/STEOM-CCSD
   Vijay G. Chilkuri      : MRCI spin determinant printing, contributions to CSF-ICE
   Pauline Colinet        : FMM embedding
   Dipayan Datta          : RHF DLPNO-CCSD density
   Achintya Kumar Dutta   : EOM-CC, STEOM-CC
   Nicolas Foglia         : Exact transition moments, OPA infrastructure, MCD improvements
   Dmitry Ganyushin       : Spin-Orbit,Spin-Spin,Magnetic field MRCI
   Miquel Garcia          : C-PCM and meta-GGA Hessian, CCSD/C-PCM, Gaussian charge scheme
   Tiago L. C. Gouveia    : GS-ROHF, GS-ROCIS
   Yang Guo               : DLPNO-NEVPT2, F12-NEVPT2, CIM, IAO-localization
   Andreas Hansen         : Spin unrestricted coupled pair/coupled cluster methods
   Ingolf Harden          : AUTO-CI MPn and infrastructure 
   Benjamin Helmich-Paris : MC-RPA, TRAH-(SCF,CASSCF), AVAS, COSX integrals, SCF dyn. polar.
   Lee Huntington         : MR-EOM, pCC
   Robert Izsak           : Overlap fitted RIJCOSX, COSX-SCS-MP3, EOM
   Riya Kayal             : Wick's Theorem for AUTO-CI, AUTO-CI UHF-CCSDT
   Emily Kempfer          : AUTO-CI, RHF CISDT and CCSDT
   Christian Kollmar      : KDIIS, OOCD, Brueckner-CCSD(T), CCSD density, CASPT2, CASPT2-K, improved NEVPT2
   Axel Koslowski         : Symmetry handling
   Simone Kossmann        : Meta GGA functionals, TD-DFT gradient, OOMP2, (MP2 Hessian; deprecated post 5.0)
   Lucas Lang             : DCDCAS
   Marvin Lechner         : AUTO-CI (C++ implementation), FIC-MRCC
   Spencer Leger          : CASSCF response
   Dagmar Lenk            : GEPOL surface, SMD, ORCA-2-JSON
   Dimitrios Liakos       : Extrapolation schemes; Compound Job, initial MDCI parallelization
   Dimitrios Manganas     : Further ROCIS development; embedding schemes. LFT, Crystal Embedding
   Dimitrios Pantazis     : SARC Basis sets
   Anastasios Papadopoulos: AUTO-CI, single reference methods and gradients
   Taras Petrenko         : pre 6.0 DFT Hessian and TD-DFT gradient, (ASA, deprecated), ECA, 1-Electron XAS/XES, NRVS
   Peter Pinski           : DLPNO-MP2, DLPNO-MP2 Gradient
   Christoph Reimann      : Effective Core Potentials
   Marius Retegan         : Local ZFS, SOC
   Christoph Riplinger    : Optimizer, TS searches, QM/MM, DLPNO-CCSD(T), (RO)-DLPNO pert. Triples
   Michael Roemelt        : Original ROCIS implementation
   Masaaki Saitow         : Open-shell DLPNO-CCSD energy and density
   Barbara Sandhoefer     : DKH picture change effects
   Kantharuban Sivalingam : CASSCF convergence/infrastructure, NEVPT2 and variants, FIC-MRCI
   Bernardo de Souza      : ESD, SOC TD-DFT
   Georgi Stoychev        : AutoAux, RI-MP2 NMR, DLPNO-MP2 response, X2C
   Van Anh Tran           : RI-MP2 g-tensors
   Willem Van den Heuvel  : Paramagnetic NMR
   Zikuan Wang            : NOTCH, Electric field optimization 
   Frank Wennmohs         : Technical directorship and infrastructure
   Hang Xu                : AUTO-CI-Response properties 


 We gratefully acknowledge several colleagues who have allowed us to
 interface, adapt or use parts of their codes:
   Stefan Grimme, W. Hujo, H. Kruse, P. Pracht,  : VdW corrections, initial TS optimization,
                  C. Bannwarth, S. Ehlert,         DFT functionals, gCP, sTDA/sTD-DF
                  L. Wittmann, M. Mueller
   Ed Valeev, F. Pavosevic, A. Kumar             : LibInt (2-el integral package), F12 methods
   Garnet Chan, S. Sharma, J. Yang, R. Olivares  : DMRG
   Ulf Ekstrom                                   : XCFun DFT Library
   Mihaly Kallay                                 : mrcc  (arbitrary order and MRCC methods)
   Frank Weinhold                                : gennbo (NPA and NBO analysis)
   Simon Mueller                                 : openCOSMO-RS
   Christopher J. Cramer and Donald G. Truhlar   : smd solvation model
   Lars Goerigk                                  : TD-DFT with DH, B97 family of functionals
   V. Asgeirsson, H. Jonsson                     : NEB implementation
   FAccTs GmbH                                   : IRC, NEB, NEB-TS, DLPNO-Multilevel, CI-OPT
                                                   MM, QMMM, 2- and 3-layer-ONIOM, Crystal-QMMM,
                                                   LR-CPCM, SF, NACMEs, symmetry and pop. for TD-DFT,
                                                   nearIR, NL-DFT gradient (VV10), updates on ESD,
                                                   ML-optimized integration grids, MBIS, APM,
                                                   GOAT, DOCKER, SOLVATOR, interface openCOSMO-RS
   S Lehtola, MJT Oliveira, MAL Marques          : LibXC Library
   Liviu Ungur et al                             : ANISO software


 Your calculation uses the libint2 library for the computation of 2-el integrals
 For citations please refer to: http://libint.valeyev.net

 Your ORCA version has been built with support for libXC version: 6.2.2
 For citations please refer to: https://libxc.gitlab.io

 This ORCA versions uses:
   CBLAS   interface :  Fast vector & matrix operations
   LAPACKE interface :  Fast linear algebra routines
   SCALAPACK package :  Parallel linear algebra routines
   Shared memory     :  Shared parallel matrices
   BLAS/LAPACK       :  OpenBLAS 0.3.27  USE64BITINT DYNAMIC_ARCH NO_AFFINITY Zen SINGLE_THREADED
        Core in use  :  Zen
   Copyright (c) 2011-2014, The OpenBLAS Project


Your calculation utilizes the atom-pairwise dispersion correction
with the Becke-Johnson damping scheme (D3BJ)


Warning: RI is on but no J-basis has been assigned. Assigning Def2/J (nothing to worry about!)
================================================================================

----- Orbital basis set information -----
Your calculation utilizes the basis: def2-TZVPPD
   F. Weigend and R. Ahlrichs, Phys. Chem. Chem. Phys. 7, 3297 (2005).
   D. Rappoport and F. Furche, J. Chem. Phys. 133, 134105 (2010)
   D. Rappoport, J. Chem. Phys. 155, 124102 (2021).

----- AuxJ basis set information -----
Your calculation utilizes the auxiliary basis: def2/J
   F. Weigend, Phys. Chem. Chem. Phys. 8, 1057 (2006).

================================================================================
                                        WARNINGS
                       Please study these warnings very carefully!
================================================================================

Using LibXC functional ID 531 : wB97M-V exchange-correlation functional
[ 1]  N. Mardirossian and M. Head-Gordon.,  J. Chem. Phys. 144, 214110 (2016)
Using LibXC functional ID 531 : wB97M-V exchange-correlation functional
[ 1]  N. Mardirossian and M. Head-Gordon.,  J. Chem. Phys. 144, 214110 (2016)

WARNING: B97M-V or wB97M-V functional requested.
  ===> : libXC variant has now been activated.
         Any manually given DFX/HFX/RangeSep scaling parameters are IGNORED!

Your calculation utilizes LibXC
 by S Lehtola, C Steigemann, MJT Oliveira & MAL Marques
Please cite in your paper:
 S Lehtola, C Steigemann, MJT Oliveira & MAL Marques, SoftwareX, 7, (2018), 1.
   


WARNING: your system is open-shell and RHF/RKS was chosen
  ===> : WILL SWITCH to UHF/UKS

INFO   : Checking CIS options ...

WARNING: CIS/ROCIS methods need fully converged wavefunctions
  ===> : Setting SCFConvForced true
         You can overwrite this default with %scf ConvForced false 


================================================================================
                                       INPUT FILE
================================================================================
NAME = orca.inp
|  1> ! Engrad def2-TZVPPD wB97M-D3BJ 
|  2> %pal nprocs 8 end%pal nprocs 64 end 
|  3> %tddft Nroots 2 Iroot 2 
|  4> sf true 
|  5> end 
|  6> *xyz 0 3 
|  7> O   4.04220114 -0.18149767 0.7552535
|  8> O   -2.13910803 1.84102182 -2.01642591
|  9> O   1.09069579 -2.8697874 -1.18273829
| 10> O   -3.4649783 -1.64946246 0.36033424
| 11> N   0.47039361 -0.86598538 -0.38428366
| 12> N   -1.93680664 -0.25077281 1.34263291
| 13> N   2.56212221 -1.70980783 0.18617744
| 14> N   -2.69375512 0.08989273 -0.80637313
| 15> C   1.82234742 0.42423153 1.06427423
| 16> C   -1.01724665 1.62037125 0.07014838
| 17> C   0.48197495 -0.20208851 0.90503686
| 18> C   -0.7630424 0.65349543 1.18520926
| 19> C   2.14750396 1.68174959 1.76713074
| 20> C   -0.36658719 2.93238817 0.02328592
| 21> C   2.89117348 -0.46525487 0.63421824
| 22> C   -1.98202527 1.24435507 -0.99043342
| 23> C   1.34564815 -1.90320534 -0.52272382
| 24> C   -2.71513263 -0.72040778 0.31541021
| 25> H   0.52833709 -0.95143256 1.71729785
| 26> H   -0.53995457 1.16773427 2.1536859
| 27> H   3.11921091 1.59853319 2.27450708
| 28> H   2.27114076 2.5540506 1.11707687
| 29> H   1.38833904 1.9720464 2.53653349
| 30> H   -0.08703478 3.27218335 1.03801267
| 31> H   0.5492771 2.7417935 -0.55311391
| 32> H   -1.0612241 3.63224945 -0.48550164
| 33> H   -0.39644407 -1.1136788 -0.86029079
| 34> H   -1.98675467 -0.77955341 2.16156141
| 35> H   3.32542927 -2.17781179 -0.28821831
| 36> H   -3.35302211 -0.26711647 -1.49987121
| 37> *
| 38> 
| 39>                          ****END OF INPUT****
================================================================================

                     *******************************
                     * Energy+Gradient Calculation *
                     *******************************

---------------------------------
CARTESIAN COORDINATES (ANGSTROEM)
---------------------------------
  O      4.042201   -0.181498    0.755254
  O     -2.139108    1.841022   -2.016426
  O      1.090696   -2.869787   -1.182738
  O     -3.464978   -1.649462    0.360334
  N      0.470394   -0.865985   -0.384284
  N     -1.936807   -0.250773    1.342633
  N      2.562122   -1.709808    0.186177
  N     -2.693755    0.089893   -0.806373
  C      1.822347    0.424232    1.064274
  C     -1.017247    1.620371    0.070148
  C      0.481975   -0.202089    0.905037
  C     -0.763042    0.653495    1.185209
  C      2.147504    1.681750    1.767131
  C     -0.366587    2.932388    0.023286
  C      2.891173   -0.465255    0.634218
  C     -1.982025    1.244355   -0.990433
  C      1.345648   -1.903205   -0.522724
  C     -2.715133   -0.720408    0.315410
  H      0.528337   -0.951433    1.717298
  H     -0.539955    1.167734    2.153686
  H      3.119211    1.598533    2.274507
  H      2.271141    2.554051    1.117077
  H      1.388339    1.972046    2.536533
  H     -0.087035    3.272183    1.038013
  H      0.549277    2.741793   -0.553114
  H     -1.061224    3.632249   -0.485502
  H     -0.396444   -1.113679   -0.860291
  H     -1.986755   -0.779553    2.161561
  H      3.325429   -2.177812   -0.288218
  H     -3.353022   -0.267116   -1.499871

----------------------------
CARTESIAN COORDINATES (A.U.)
----------------------------
  NO LB      ZA    FRAG     MASS         X           Y           Z
   0 O     8.0000    0    15.999    7.638653   -0.342981    1.427222
   1 O     8.0000    0    15.999   -4.042328    3.479027   -3.810493
   2 O     8.0000    0    15.999    2.061116   -5.423112   -2.235051
   3 O     8.0000    0    15.999   -6.547860   -3.117032    0.680933
   4 N     7.0000    0    14.007    0.888915   -1.636475   -0.726191
   5 N     7.0000    0    14.007   -3.660034   -0.473892    2.537208
   6 N     7.0000    0    14.007    4.841709   -3.231069    0.351824
   7 N     7.0000    0    14.007   -5.090459    0.169873   -1.523824
   8 C     6.0000    0    12.011    3.443738    0.801681    2.011187
   9 C     6.0000    0    12.011   -1.922318    3.062058    0.132561
  10 C     6.0000    0    12.011    0.910801   -0.381892    1.710272
  11 C     6.0000    0    12.011   -1.441941    1.234927    2.239721
  12 C     6.0000    0    12.011    4.058194    3.178046    3.339393
  13 C     6.0000    0    12.011   -0.692749    5.541411    0.044004
  14 C     6.0000    0    12.011    5.463526   -0.879204    1.198499
  15 C     6.0000    0    12.011   -3.745485    2.351490   -1.871648
  16 C     6.0000    0    12.011    2.542906   -3.596537   -0.987805
  17 C     6.0000    0    12.011   -5.130857   -1.361373    0.596039
  18 H     1.0000    0     1.008    0.998412   -1.797947    3.245223
  19 H     1.0000    0     1.008   -1.020366    2.206698    4.069877
  20 H     1.0000    0     1.008    5.894454    3.020790    4.298195
  21 H     1.0000    0     1.008    4.291834    4.826456    2.110969
  22 H     1.0000    0     1.008    2.623581    3.726628    4.793354
  23 H     1.0000    0     1.008   -0.164472    6.183530    1.961560
  24 H     1.0000    0     1.008    1.037983    5.181239   -1.045234
  25 H     1.0000    0     1.008   -2.005423    6.863957   -0.917465
  26 H     1.0000    0     1.008   -0.749171   -2.104548   -1.625714
  27 H     1.0000    0     1.008   -3.754422   -1.473142    4.084759
  28 H     1.0000    0     1.008    6.284151   -4.115468   -0.544654
  29 H     1.0000    0     1.008   -6.336294   -0.504777   -2.834346

--------------------------------
INTERNAL COORDINATES (ANGSTROEM)
--------------------------------
 O      0   0   0     0.000000000000     0.00000000     0.00000000
 O      1   0   0     7.069750695348     0.00000000     0.00000000
 O      1   2   0     4.437803249538    54.59086101     0.00000000
 O      2   1   3     4.426104527960    79.96677039    47.38548652
 N      3   1   2     2.244443611686    59.17841760   339.23275145
 N      4   2   1     2.292717173253    63.21166679    41.85446435
 N      1   2   3     2.202319946387    60.63469126   348.50392603
 N      2   1   3     2.199616833604    77.11730786    47.29054036
 C      1   2   3     2.321670134515    30.85758647   259.29516603
 C      2   1   3     2.379296513187    38.50066021   111.61975240
 C      5   3   1     1.450255351559   136.28288173   300.42404725
 C      6   4   2     1.490035484999   148.21394204   325.64636044
 C      9   1   2     1.476849931571    94.30048174   246.99795031
 C     10   2   1     1.465244765017    95.64082102    86.05406501
 C      1   2   3     1.191651105316    35.29141526   319.50497258
 C      2   1   3     1.197224621189    53.61072387    73.70046126
 C      3   1   2     1.197873401154    29.42765361   326.36166822
 C      4   2   1     1.194750725348    34.77131792    35.94352599
 H     11   5   3     1.106089448992   110.06371309   338.29433766
 H     12   6   4     1.118998108436   110.15128558   173.38770530
 H     13   9   1     1.099349860735   110.47497174   332.63906646
 H     13   9   1     1.094881337983   114.87798589    89.32361387
 H     13   9   1     1.119189083829   113.49635911   211.72624097
 H     14  10   2     1.106020203908   110.97690952   157.76078860
 H     14  10   2     1.098804118100   103.39070028   274.36618693
 H     14  10   2     1.109590478144   107.54459854    34.13147660
 H      5   3   1     1.019481427781    81.48773268   171.85475441
 H      6   4   2     0.976087914457    89.70565285   176.25476333
 H      7   1   2     1.013270300581    86.28648059   131.42950864
 H      8   2   1     1.021287481541    93.87106389   219.94407469

---------------------------
INTERNAL COORDINATES (A.U.)
---------------------------
 O      0   0   0     0.000000000000     0.00000000     0.00000000
 O      1   0   0    13.359892649307     0.00000000     0.00000000
 O      1   2   0     8.386232777853    54.59086101     0.00000000
 O      2   1   3     8.364125397953    79.96677039    47.38548652
 N      3   1   2     4.241383749115    59.17841760   339.23275145
 N      4   2   1     4.332607559986    63.21166679    41.85446435
 N      1   2   3     4.161781557944    60.63469126   348.50392603
 N      2   1   3     4.156673415075    77.11730786    47.29054036
 C      1   2   3     4.387320727538    30.85758647   259.29516603
 C      2   1   3     4.496218801318    38.50066021   111.61975240
 C      5   3   1     2.740585438700   136.28288173   300.42404725
 C      6   4   2     2.815758996472   148.21394204   325.64636044
 C      9   1   2     2.790841911569    94.30048174   246.99795031
 C     10   2   1     2.768911325045    95.64082102    86.05406501
 C      1   2   3     2.251894236231    35.29141526   319.50497258
 C      2   1   3     2.262426654835    53.61072387    73.70046126
 C      3   1   2     2.263652671290    29.42765361   326.36166822
 C      4   2   1     2.257751669211    34.77131792    35.94352599
 H     11   5   3     2.090206138215   110.06371309   338.29433766
 H     12   6   4     2.114599969321   110.15128558   173.38770530
 H     13   9   1     2.077470162154   110.47497174   332.63906646
 H     13   9   1     2.069025877929   114.87798589    89.32361387
 H     13   9   1     2.114960860511   113.49635911   211.72624097
 H     14  10   2     2.090075283971   110.97690952   157.76078860
 H     14  10   2     2.076438858034   103.39070028   274.36618693
 H     14  10   2     2.096822124499   107.54459854    34.13147660
 H      5   3   1     1.926540697125    81.48773268   171.85475441
 H      6   4   2     1.844538840955    89.70565285   176.25476333
 H      7   1   2     1.914803367734    86.28648059   131.42950864
 H      8   2   1     1.929953644114    93.87106389   219.94407469

---------------------
BASIS SET INFORMATION
---------------------
There are 4 groups of distinct atoms

 Group   1 Type O   : 12s7p3d1f contracted to 6s4p3d1f pattern {621111/4111/111/1}
 Group   2 Type N   : 12s6p3d1f contracted to 6s3p3d1f pattern {621111/411/111/1}
 Group   3 Type C   : 12s6p3d1f contracted to 6s3p3d1f pattern {621111/411/111/1}
 Group   4 Type H   : 5s3p1d contracted to 3s3p1d pattern {311/111/1}

Atom   0O    basis set group =>   1
Atom   1O    basis set group =>   1
Atom   2O    basis set group =>   1
Atom   3O    basis set group =>   1
Atom   4N    basis set group =>   2
Atom   5N    basis set group =>   2
Atom   6N    basis set group =>   2
Atom   7N    basis set group =>   2
Atom   8C    basis set group =>   3
Atom   9C    basis set group =>   3
Atom  10C    basis set group =>   3
Atom  11C    basis set group =>   3
Atom  12C    basis set group =>   3
Atom  13C    basis set group =>   3
Atom  14C    basis set group =>   3
Atom  15C    basis set group =>   3
Atom  16C    basis set group =>   3
Atom  17C    basis set group =>   3
Atom  18H    basis set group =>   4
Atom  19H    basis set group =>   4
Atom  20H    basis set group =>   4
Atom  21H    basis set group =>   4
Atom  22H    basis set group =>   4
Atom  23H    basis set group =>   4
Atom  24H    basis set group =>   4
Atom  25H    basis set group =>   4
Atom  26H    basis set group =>   4
Atom  27H    basis set group =>   4
Atom  28H    basis set group =>   4
Atom  29H    basis set group =>   4
---------------------------------
AUXILIARY/J BASIS SET INFORMATION
---------------------------------
There are 4 groups of distinct atoms

 Group   1 Type O   : 12s5p4d2f1g contracted to 6s4p3d1f1g pattern {711111/2111/211/2/1}
 Group   2 Type N   : 12s5p4d2f1g contracted to 6s4p3d1f1g pattern {711111/2111/211/2/1}
 Group   3 Type C   : 12s5p4d2f1g contracted to 6s4p3d1f1g pattern {711111/2111/211/2/1}
 Group   4 Type H   : 5s2p1d contracted to 3s1p1d pattern {311/2/1}

Atom   0O    basis set group =>   1
Atom   1O    basis set group =>   1
Atom   2O    basis set group =>   1
Atom   3O    basis set group =>   1
Atom   4N    basis set group =>   2
Atom   5N    basis set group =>   2
Atom   6N    basis set group =>   2
Atom   7N    basis set group =>   2
Atom   8C    basis set group =>   3
Atom   9C    basis set group =>   3
Atom  10C    basis set group =>   3
Atom  11C    basis set group =>   3
Atom  12C    basis set group =>   3
Atom  13C    basis set group =>   3
Atom  14C    basis set group =>   3
Atom  15C    basis set group =>   3
Atom  16C    basis set group =>   3
Atom  17C    basis set group =>   3
Atom  18H    basis set group =>   4
Atom  19H    basis set group =>   4
Atom  20H    basis set group =>   4
Atom  21H    basis set group =>   4
Atom  22H    basis set group =>   4
Atom  23H    basis set group =>   4
Atom  24H    basis set group =>   4
Atom  25H    basis set group =>   4
Atom  26H    basis set group =>   4
Atom  27H    basis set group =>   4
Atom  28H    basis set group =>   4
Atom  29H    basis set group =>   4
[1739930076.771609] [ohm:706230:0]        ib_iface.c:1059 UCX  ERROR ibv_create_cq(cqe=256) failed: Connection timed out
[1739930076.778140] [ohm:706233:0]        ib_iface.c:1059 UCX  ERROR ibv_create_cq(cqe=256) failed: Connection timed out
[1739930076.787891] [ohm:706231:0]        ib_iface.c:1059 UCX  ERROR ibv_create_cq(cqe=256) failed: Connection timed out
[1739930076.788373] [ohm:706234:0]        ib_iface.c:1059 UCX  ERROR ibv_create_cq(cqe=256) failed: Connection timed out
[1739930076.806161] [ohm:706232:0]        ib_iface.c:1059 UCX  ERROR ibv_create_cq(cqe=256) failed: Connection timed out
[1739930076.813174] [ohm:706246:0]        ib_iface.c:1059 UCX  ERROR ibv_create_cq(cqe=256) failed: Connection timed out
[1739930076.816294] [ohm:706250:0]        ib_iface.c:1059 UCX  ERROR ibv_create_cq(cqe=256) failed: Connection timed out
[1739930076.829159] [ohm:706258:0]        ib_iface.c:1059 UCX  ERROR ibv_create_cq(cqe=256) failed: Connection timed out
[1739930076.829159] [ohm:706243:0]        ib_iface.c:1059 UCX  ERROR ibv_create_cq(cqe=256) failed: Connection timed out
[1739930076.830864] [ohm:706235:0]        ib_iface.c:1059 UCX  ERROR ibv_create_cq(cqe=256) failed: Connection timed out
[1739930076.833901] [ohm:706238:0]        ib_iface.c:1059 UCX  ERROR ibv_create_cq(cqe=256) failed: Connection timed out
[1739930076.841017] [ohm:706271:0]        ib_iface.c:1059 UCX  ERROR ibv_create_cq(cqe=256) failed: Connection timed out
[1739930076.853179] [ohm:706236:0]        ib_iface.c:1059 UCX  ERROR ibv_create_cq(cqe=256) failed: Connection timed out
[1739930076.884112] [ohm:706242:0]        ib_iface.c:1059 UCX  ERROR ibv_create_cq(cqe=256) failed: Connection timed out
[1739930076.888308] [ohm:706254:0]        ib_iface.c:1059 UCX  ERROR ibv_create_cq(cqe=256) failed: Connection timed out
[1739930076.890619] [ohm:706252:0]        ib_iface.c:1059 UCX  ERROR ibv_create_cq(cqe=256) failed: Connection timed out
[1739930076.892682] [ohm:706240:0]        ib_iface.c:1059 UCX  ERROR ibv_create_cq(cqe=256) failed: Connection timed out
[1739930076.902368] [ohm:706245:0]        ib_iface.c:1059 UCX  ERROR ibv_create_cq(cqe=256) failed: Connection timed out
[1739930076.921581] [ohm:706278:0]        ib_iface.c:1059 UCX  ERROR ibv_create_cq(cqe=256) failed: Connection timed out
[1739930076.923545] [ohm:706285:0]        ib_iface.c:1059 UCX  ERROR ibv_create_cq(cqe=256) failed: Connection timed out
[1739930076.925479] [ohm:706244:0]        ib_iface.c:1059 UCX  ERROR ibv_create_cq(cqe=256) failed: Connection timed out
[1739930076.953000] [ohm:706274:0]        ib_iface.c:1059 UCX  ERROR ibv_create_cq(cqe=256) failed: Connection timed out
[1739930076.954377] [ohm:706349:0]        ib_iface.c:1059 UCX  ERROR ibv_create_cq(cqe=256) failed: Connection timed out
[1739930076.971799] [ohm:706266:0]        ib_iface.c:1059 UCX  ERROR ibv_create_cq(cqe=256) failed: Connection timed out
[1739930076.979660] [ohm:706270:0]        ib_iface.c:1059 UCX  ERROR ibv_create_cq(cqe=256) failed: Connection timed out
[1739930076.979708] [ohm:706241:0]        ib_iface.c:1059 UCX  ERROR ibv_create_cq(cqe=256) failed: Connection timed out
[1739930076.979858] [ohm:706304:0]        ib_iface.c:1059 UCX  ERROR ibv_create_cq(cqe=256) failed: Connection timed out
[1739930076.986455] [ohm:706261:0]        ib_iface.c:1059 UCX  ERROR ibv_create_cq(cqe=256) failed: Connection timed out
[1739930076.989764] [ohm:706310:0]        ib_iface.c:1059 UCX  ERROR ibv_create_cq(cqe=256) failed: Connection timed out
[1739930076.990080] [ohm:706289:0]        ib_iface.c:1059 UCX  ERROR ibv_create_cq(cqe=256) failed: Connection timed out
[1739930076.990352] [ohm:706286:0]        ib_iface.c:1059 UCX  ERROR ibv_create_cq(cqe=256) failed: Connection timed out
[1739930076.990726] [ohm:706297:0]        ib_iface.c:1059 UCX  ERROR ibv_create_cq(cqe=256) failed: Connection timed out
[1739930076.993589] [ohm:706377:0]        ib_iface.c:1059 UCX  ERROR ibv_create_cq(cqe=256) failed: Connection timed out
[1739930076.994573] [ohm:706332:0]        ib_iface.c:1059 UCX  ERROR ibv_create_cq(cqe=256) failed: Connection timed out
[1739930076.996559] [ohm:706317:0]        ib_iface.c:1059 UCX  ERROR ibv_create_cq(cqe=256) failed: Connection timed out
[1739930077.003727] [ohm:706320:0]        ib_iface.c:1059 UCX  ERROR ibv_create_cq(cqe=256) failed: Connection timed out
[1739930077.004841] [ohm:706260:0]        ib_iface.c:1059 UCX  ERROR ibv_create_cq(cqe=256) failed: Connection timed out
[1739930077.008014] [ohm:706312:0]        ib_iface.c:1059 UCX  ERROR ibv_create_cq(cqe=256) failed: Connection timed out
[1739930077.011073] [ohm:706357:0]        ib_iface.c:1059 UCX  ERROR ibv_create_cq(cqe=256) failed: Connection timed out
[1739930077.011638] [ohm:706280:0]        ib_iface.c:1059 UCX  ERROR ibv_create_cq(cqe=256) failed: Connection timed out
[1739930077.014183] [ohm:706373:0]        ib_iface.c:1059 UCX  ERROR ibv_create_cq(cqe=256) failed: Connection timed out
[1739930077.017311] [ohm:706296:0]        ib_iface.c:1059 UCX  ERROR ibv_create_cq(cqe=256) failed: Connection timed out
[1739930077.018250] [ohm:706292:0]        ib_iface.c:1059 UCX  ERROR ibv_create_cq(cqe=256) failed: Connection timed out
[1739930077.029828] [ohm:706277:0]        ib_iface.c:1059 UCX  ERROR ibv_create_cq(cqe=256) failed: Connection timed out
[1739930077.033952] [ohm:706239:0]        ib_iface.c:1059 UCX  ERROR ibv_create_cq(cqe=256) failed: Connection timed out
[1739930077.045903] [ohm:706339:0]        ib_iface.c:1059 UCX  ERROR ibv_create_cq(cqe=256) failed: Connection timed out
[1739930077.049745] [ohm:706301:0]        ib_iface.c:1059 UCX  ERROR ibv_create_cq(cqe=256) failed: Connection timed out
[1739930077.050074] [ohm:706305:0]        ib_iface.c:1059 UCX  ERROR ibv_create_cq(cqe=256) failed: Connection timed out
[1739930077.052381] [ohm:706351:0]        ib_iface.c:1059 UCX  ERROR ibv_create_cq(cqe=256) failed: Connection timed out
[1739930077.052805] [ohm:706265:0]        ib_iface.c:1059 UCX  ERROR ibv_create_cq(cqe=256) failed: Connection timed out
[1739930077.063018] [ohm:706237:0]        ib_iface.c:1059 UCX  ERROR ibv_create_cq(cqe=256) failed: Connection timed out
[1739930077.067050] [ohm:706327:0]        ib_iface.c:1059 UCX  ERROR ibv_create_cq(cqe=256) failed: Connection timed out
[1739930077.072216] [ohm:706325:0]        ib_iface.c:1059 UCX  ERROR ibv_create_cq(cqe=256) failed: Connection timed out
[1739930077.072206] [ohm:706371:0]        ib_iface.c:1059 UCX  ERROR ibv_create_cq(cqe=256) failed: Connection timed out
[1739930077.080491] [ohm:706323:0]        ib_iface.c:1059 UCX  ERROR ibv_create_cq(cqe=256) failed: Connection timed out
[1739930077.080606] [ohm:706342:0]        ib_iface.c:1059 UCX  ERROR ibv_create_cq(cqe=256) failed: Connection timed out
[1739930077.080951] [ohm:706366:0]        ib_iface.c:1059 UCX  ERROR ibv_create_cq(cqe=256) failed: Connection timed out
[1739930077.081219] [ohm:706335:0]        ib_iface.c:1059 UCX  ERROR ibv_create_cq(cqe=256) failed: Connection timed out
[1739930077.083825] [ohm:706359:0]        ib_iface.c:1059 UCX  ERROR ibv_create_cq(cqe=256) failed: Connection timed out
[1739930077.084177] [ohm:706290:0]        ib_iface.c:1059 UCX  ERROR ibv_create_cq(cqe=256) failed: Connection timed out
[1739930077.084680] [ohm:706362:0]        ib_iface.c:1059 UCX  ERROR ibv_create_cq(cqe=256) failed: Connection timed out
[1739930077.084745] [ohm:706291:0]        ib_iface.c:1059 UCX  ERROR ibv_create_cq(cqe=256) failed: Connection timed out
[1739930077.085772] [ohm:706345:0]        ib_iface.c:1059 UCX  ERROR ibv_create_cq(cqe=256) failed: Connection timed out
[1739930077.085752] [ohm:706381:0]        ib_iface.c:1059 UCX  ERROR ibv_create_cq(cqe=256) failed: Connection timed out


           ************************************************************
           *        Program running with 64 parallel MPI-processes    *
           *              working on a common directory               *
           ************************************************************
------------------------------------------------------------------------------
                             ORCA STARTUP CALCULATIONS
                           -- RI-GTO INTEGRALS CHOSEN --
------------------------------------------------------------------------------
------------------------------------------------------------------------------
                   ___                                                        
                  /   \      - P O W E R E D   B Y -                         
                 /     \                                                     
                 |  |  |   _    _      __       _____    __    __             
                 |  |  |  | |  | |    /  \     |  _  \  |  |  /  |          
                  \  \/   | |  | |   /    \    | | | |  |  | /  /          
                 / \  \   | |__| |  /  /\  \   | |_| |  |  |/  /          
                |  |  |   |  __  | /  /__\  \  |    /   |      \           
                |  |  |   | |  | | |   __   |  |    \   |  |\   \          
                \     /   | |  | | |  |  |  |  | |\  \  |  | \   \       
                 \___/    |_|  |_| |__|  |__|  |_| \__\ |__|  \__/        
                                                                              
                      - O R C A' S   B I G   F R I E N D -                    
                                      &                                       
                       - I N T E G R A L  F E E D E R -                       
                                                                              
 v1 FN, 2020, v2 2021, v3 2022-2024                                           
------------------------------------------------------------------------------


----------------------
SHARK INTEGRAL PACKAGE
----------------------

Number of atoms                             ...     30
Number of basis functions                   ...    882
Number of shells                            ...    322
Maximum angular momentum                    ...      3
Integral batch strategy                     ... SHARK/LIBINT Hybrid
RI-J (if used) integral strategy            ... SPLIT-RIJ (Revised 2003 algorithm where possible)
Printlevel                                  ...      1
Contraction scheme used                     ... SEGMENTED contraction
Prescreening option                         ... SCHWARTZ
   Thresh                                   ... 2.500e-11
   Tcut                                     ... 2.500e-12
   Tpresel                                  ... 2.500e-12 
Coulomb Range Separation                    ... NOT USED
Exchange Range Separation                   ... Long Range
   Mu parameter                             ... 3.000e-01
   Scaling (regular/separated)              ... 1.500e-01 8.500e-01
Multipole approximations                    ... NOT USED
Finite Nucleus Model                        ... NOT USED
CABS basis                                  ... NOT available
Auxiliary Coulomb fitting basis             ... AVAILABLE
   # of basis functions in Aux-J            ...   1014
   # of shells in Aux-J                     ...    330
   Maximum angular momentum in Aux-J        ...      4
Auxiliary J/K fitting basis                 ... NOT available
Auxiliary Correlation fitting basis         ... NOT available
Auxiliary 'external' fitting basis          ... NOT available

Checking pre-screening integrals            ... done (  0.0 sec) Dimension = 322
Check shell pair data                       ... done (  0.0 sec)
Shell pair information
Shell pair cut-off parameter TPreSel        ...   2.5e-12
Total number of shell pairs                 ...     52003
Shell pairs after pre-screening             ...     44079
Total number of primitive shell pairs       ...    129718
Primitive shell pairs kept                  ...     82219
          la=0 lb=0:   8555 shell pairs
          la=1 lb=0:  11696 shell pairs
          la=1 lb=1:   4051 shell pairs
          la=2 lb=0:   7942 shell pairs
          la=2 lb=1:   5490 shell pairs
          la=2 lb=2:   1886 shell pairs
          la=3 lb=0:   1980 shell pairs
          la=3 lb=1:   1403 shell pairs
          la=3 lb=2:    953 shell pairs
          la=3 lb=3:    123 shell pairs

Calculating one electron integrals          ... done (  0.2 sec)
Calculating RI/J V-Matrix + Cholesky decomp.... done (  0.0 sec)
Calculating Nuclear repulsion               ... done (  0.0 sec) ENN=   1401.281308855227 Eh

Diagonalization of the overlap matrix:
Smallest eigenvalue                        ... 5.090e-07
Time for diagonalization                   ...    0.129 sec
Threshold for overlap eigenvalues          ... 1.000e-07
Number of eigenvalues below threshold      ... 0

IMPORTANT:
Smallest eigenvalue of S below the DiffSThresh (1.000e-06) while
Thresh>1e-12 and/or TCut>1e-13! In order to avoid SCF convergence issues,
Thresh will be set to at least 1e-12 and TCut to at least 1e-13.
This can be turned off by adding %SCF DiffSThresh -1 END to the input.

Time for construction of square roots      ...    0.136 sec
Total time needed                          ...    0.277 sec

-------------------
DFT GRID GENERATION
-------------------

General Integration Accuracy     IntAcc      ... 4.388
Radial Grid Type                 RadialGrid  ... OptM3 with GC (2021)
Angular Grid (max. ang.)         AngularGrid ... 4 (Lebedev-302)
Angular grid pruning method      GridPruning ... 4 (adaptive)
Weight generation scheme         WeightScheme... mBecke (2022)
Basis function cutoff            BFCut       ... 1.0000e-11
Integration weight cutoff        WCut        ... 1.0000e-14
Partially contracted basis set               ... off
Rotationally invariant grid construction     ... off
Angular grids for H and He will be reduced by one unit
Diffuse basis detected: some atoms will have their outermost
                        angular grid increased by 1.

Total number of grid points                  ...   152087
Total number of batches                      ...     2393
Average number of points per batch           ...       63
Average number of grid points per atom       ...     5070

--------------------
COSX GRID GENERATION
--------------------

GRIDX 1
-------
General Integration Accuracy     IntAcc      ... 3.816
Radial Grid Type                 RadialGrid  ... OptM3 with GC (2021)
Angular Grid (max. ang.)         AngularGrid ... 1 (Lebedev-50)
Angular grid pruning method      GridPruning ... 4 (adaptive)
Weight generation scheme         WeightScheme... mBecke (2022)
Basis function cutoff            BFCut       ... 1.0000e-11
Integration weight cutoff        WCut        ... 1.0000e-14
Partially contracted basis set               ... on
Rotationally invariant grid construction     ... off
Angular grids for H and He will be reduced by one unit
Diffuse basis detected: some atoms will have their outermost
                        angular grid increased by 1.

Total number of grid points                  ...    19053
Total number of batches                      ...      166
Average number of points per batch           ...      114
Average number of grid points per atom       ...      635
UseSFitting                                  ... on

GRIDX 2
-------
General Integration Accuracy     IntAcc      ... 4.020
Radial Grid Type                 RadialGrid  ... OptM3 with GC (2021)
Angular Grid (max. ang.)         AngularGrid ... 2 (Lebedev-110)
Angular grid pruning method      GridPruning ... 4 (adaptive)
Weight generation scheme         WeightScheme... mBecke (2022)
Basis function cutoff            BFCut       ... 1.0000e-11
Integration weight cutoff        WCut        ... 1.0000e-14
Partially contracted basis set               ... on
Rotationally invariant grid construction     ... off
Angular grids for H and He will be reduced by one unit
Diffuse basis detected: some atoms will have their outermost
                        angular grid increased by 1.

Total number of grid points                  ...    46108
Total number of batches                      ...      375
Average number of points per batch           ...      122
Average number of grid points per atom       ...     1537
UseSFitting                                  ... on

GRIDX 3
-------
General Integration Accuracy     IntAcc      ... 4.338
Radial Grid Type                 RadialGrid  ... OptM3 with GC (2021)
Angular Grid (max. ang.)         AngularGrid ... 3 (Lebedev-194)
Angular grid pruning method      GridPruning ... 4 (adaptive)
Weight generation scheme         WeightScheme... mBecke (2022)
Basis function cutoff            BFCut       ... 1.0000e-11
Integration weight cutoff        WCut        ... 1.0000e-14
Partially contracted basis set               ... on
Rotationally invariant grid construction     ... off
Angular grids for H and He will be reduced by one unit
Diffuse basis detected: some atoms will have their outermost
                        angular grid increased by 1.

Total number of grid points                  ...   101323
Total number of batches                      ...      805
Average number of points per batch           ...      125
Average number of grid points per atom       ...     3377
UseSFitting                                  ... on
Initializing property integral containers    ... done (  0.0 sec)

SHARK setup successfully completed in   4.2 seconds

Maximum memory used throughout the entire STARTUP-calculation: 78.9 MB
[1739930083.077854] [ohm:706592:0]        ib_iface.c:1059 UCX  ERROR ibv_create_cq(cqe=256) failed: Connection timed out
[1739930083.084219] [ohm:706590:0]        ib_iface.c:1059 UCX  ERROR ibv_create_cq(cqe=256) failed: Connection timed out
[1739930083.088651] [ohm:706586:0]        ib_iface.c:1059 UCX  ERROR ibv_create_cq(cqe=256) failed: Connection timed out
[1739930083.092806] [ohm:706599:0]        ib_iface.c:1059 UCX  ERROR ibv_create_cq(cqe=256) failed: Connection timed out
[1739930083.098445] [ohm:706618:0]        ib_iface.c:1059 UCX  ERROR ibv_create_cq(cqe=256) failed: Connection timed out
[1739930083.099953] [ohm:706588:0]        ib_iface.c:1059 UCX  ERROR ibv_create_cq(cqe=256) failed: Connection timed out
[1739930083.101030] [ohm:706595:0]        ib_iface.c:1059 UCX  ERROR ibv_create_cq(cqe=256) failed: Connection timed out
[1739930083.104346] [ohm:706591:0]        ib_iface.c:1059 UCX  ERROR ibv_create_cq(cqe=256) failed: Connection timed out
[1739930083.134608] [ohm:706620:0]        ib_iface.c:1059 UCX  ERROR ibv_create_cq(cqe=256) failed: Connection timed out
[1739930083.135624] [ohm:706596:0]        ib_iface.c:1059 UCX  ERROR ibv_create_cq(cqe=256) failed: Connection timed out
[1739930083.144475] [ohm:706597:0]        ib_iface.c:1059 UCX  ERROR ibv_create_cq(cqe=256) failed: Connection timed out
[1739930083.155619] [ohm:706633:0]        ib_iface.c:1059 UCX  ERROR ibv_create_cq(cqe=256) failed: Connection timed out
[1739930083.156939] [ohm:706600:0]        ib_iface.c:1059 UCX  ERROR ibv_create_cq(cqe=256) failed: Connection timed out
[1739930083.158768] [ohm:706728:0]        ib_iface.c:1059 UCX  ERROR ibv_create_cq(cqe=256) failed: Connection timed out
[1739930083.161254] [ohm:706598:0]        ib_iface.c:1059 UCX  ERROR ibv_create_cq(cqe=256) failed: Connection timed out
[1739930083.167781] [ohm:706652:0]        ib_iface.c:1059 UCX  ERROR ibv_create_cq(cqe=256) failed: Connection timed out
[1739930083.191944] [ohm:706614:0]        ib_iface.c:1059 UCX  ERROR ibv_create_cq(cqe=256) failed: Connection timed out
[1739930083.193436] [ohm:706687:0]        ib_iface.c:1059 UCX  ERROR ibv_create_cq(cqe=256) failed: Connection timed out
[1739930083.199417] [ohm:706644:0]        ib_iface.c:1059 UCX  ERROR ibv_create_cq(cqe=256) failed: Connection timed out
[1739930083.203041] [ohm:706660:0]        ib_iface.c:1059 UCX  ERROR ibv_create_cq(cqe=256) failed: Connection timed out
[1739930083.224954] [ohm:706690:0]        ib_iface.c:1059 UCX  ERROR ibv_create_cq(cqe=256) failed: Connection timed out
[1739930083.233264] [ohm:706655:0]        ib_iface.c:1059 UCX  ERROR ibv_create_cq(cqe=256) failed: Connection timed out
[1739930083.236637] [ohm:706714:0]        ib_iface.c:1059 UCX  ERROR ibv_create_cq(cqe=256) failed: Connection timed out
[1739930083.237032] [ohm:706661:0]        ib_iface.c:1059 UCX  ERROR ibv_create_cq(cqe=256) failed: Connection timed out
[1739930083.239357] [ohm:706700:0]        ib_iface.c:1059 UCX  ERROR ibv_create_cq(cqe=256) failed: Connection timed out
[1739930083.246880] [ohm:706680:0]        ib_iface.c:1059 UCX  ERROR ibv_create_cq(cqe=256) failed: Connection timed out
[1739930083.251638] [ohm:706675:0]        ib_iface.c:1059 UCX  ERROR ibv_create_cq(cqe=256) failed: Connection timed out
[1739930083.253080] [ohm:706624:0]        ib_iface.c:1059 UCX  ERROR ibv_create_cq(cqe=256) failed: Connection timed out
[1739930083.259914] [ohm:706717:0]        ib_iface.c:1059 UCX  ERROR ibv_create_cq(cqe=256) failed: Connection timed out
[1739930083.276173] [ohm:706653:0]        ib_iface.c:1059 UCX  ERROR ibv_create_cq(cqe=256) failed: Connection timed out
[1739930083.292213] [ohm:706705:0]        ib_iface.c:1059 UCX  ERROR ibv_create_cq(cqe=256) failed: Connection timed out
[1739930083.294944] [ohm:706703:0]        ib_iface.c:1059 UCX  ERROR ibv_create_cq(cqe=256) failed: Connection timed out
[1739930083.297428] [ohm:706664:0]        ib_iface.c:1059 UCX  ERROR ibv_create_cq(cqe=256) failed: Connection timed out
[1739930083.305194] [ohm:706734:0]        ib_iface.c:1059 UCX  ERROR ibv_create_cq(cqe=256) failed: Connection timed out
[1739930083.311729] [ohm:706630:0]        ib_iface.c:1059 UCX  ERROR ibv_create_cq(cqe=256) failed: Connection timed out
[1739930083.311956] [ohm:706654:0]        ib_iface.c:1059 UCX  ERROR ibv_create_cq(cqe=256) failed: Connection timed out
[1739930083.317209] [ohm:706649:0]        ib_iface.c:1059 UCX  ERROR ibv_create_cq(cqe=256) failed: Connection timed out
[1739930083.324637] [ohm:706650:0]        ib_iface.c:1059 UCX  ERROR ibv_create_cq(cqe=256) failed: Connection timed out
[1739930083.342736] [ohm:706589:0]        ib_iface.c:1059 UCX  ERROR ibv_create_cq(cqe=256) failed: Connection timed out
[1739930083.343169] [ohm:706696:0]        ib_iface.c:1059 UCX  ERROR ibv_create_cq(cqe=256) failed: Connection timed out
[1739930083.353966] [ohm:706617:0]        ib_iface.c:1059 UCX  ERROR ibv_create_cq(cqe=256) failed: Connection timed out
[1739930083.356091] [ohm:706706:0]        ib_iface.c:1059 UCX  ERROR ibv_create_cq(cqe=256) failed: Connection timed out
[1739930083.357348] [ohm:706601:0]        ib_iface.c:1059 UCX  ERROR ibv_create_cq(cqe=256) failed: Connection timed out
[1739930083.361048] [ohm:706692:0]        ib_iface.c:1059 UCX  ERROR ibv_create_cq(cqe=256) failed: Connection timed out
[1739930083.361389] [ohm:706722:0]        ib_iface.c:1059 UCX  ERROR ibv_create_cq(cqe=256) failed: Connection timed out
[1739930083.361439] [ohm:706646:0]        ib_iface.c:1059 UCX  ERROR ibv_create_cq(cqe=256) failed: Connection timed out
[1739930083.364706] [ohm:706668:0]        ib_iface.c:1059 UCX  ERROR ibv_create_cq(cqe=256) failed: Connection timed out
[1739930083.369681] [ohm:706593:0]        ib_iface.c:1059 UCX  ERROR ibv_create_cq(cqe=256) failed: Connection timed out
[1739930083.370265] [ohm:706622:0]        ib_iface.c:1059 UCX  ERROR ibv_create_cq(cqe=256) failed: Connection timed out
[1739930083.379785] [ohm:706670:0]        ib_iface.c:1059 UCX  ERROR ibv_create_cq(cqe=256) failed: Connection timed out
[1739930083.379783] [ohm:706640:0]        ib_iface.c:1059 UCX  ERROR ibv_create_cq(cqe=256) failed: Connection timed out
[1739930083.382296] [ohm:706585:0]        ib_iface.c:1059 UCX  ERROR ibv_create_cq(cqe=256) failed: Connection timed out
[1739930083.382495] [ohm:706656:0]        ib_iface.c:1059 UCX  ERROR ibv_create_cq(cqe=256) failed: Connection timed out
[1739930083.386441] [ohm:706657:0]        ib_iface.c:1059 UCX  ERROR ibv_create_cq(cqe=256) failed: Connection timed out
[1739930083.392501] [ohm:706636:0]        ib_iface.c:1059 UCX  ERROR ibv_create_cq(cqe=256) failed: Connection timed out
[1739930083.392814] [ohm:706612:0]        ib_iface.c:1059 UCX  ERROR ibv_create_cq(cqe=256) failed: Connection timed out
[1739930083.394316] [ohm:706594:0]        ib_iface.c:1059 UCX  ERROR ibv_create_cq(cqe=256) failed: Connection timed out
[1739930083.396935] [ohm:706659:0]        ib_iface.c:1059 UCX  ERROR ibv_create_cq(cqe=256) failed: Connection timed out
[1739930083.398674] [ohm:706724:0]        ib_iface.c:1059 UCX  ERROR ibv_create_cq(cqe=256) failed: Connection timed out
[1739930083.399042] [ohm:706587:0]        ib_iface.c:1059 UCX  ERROR ibv_create_cq(cqe=256) failed: Connection timed out
[1739930083.404191] [ohm:706685:0]        ib_iface.c:1059 UCX  ERROR ibv_create_cq(cqe=256) failed: Connection timed out
[1739930083.404947] [ohm:706627:0]        ib_iface.c:1059 UCX  ERROR ibv_create_cq(cqe=256) failed: Connection timed out
[1739930083.405322] [ohm:706678:0]        ib_iface.c:1059 UCX  ERROR ibv_create_cq(cqe=256) failed: Connection timed out
[1739930083.405552] [ohm:706695:0]        ib_iface.c:1059 UCX  ERROR ibv_create_cq(cqe=256) failed: Connection timed out


           ************************************************************
           *        Program running with 64 parallel MPI-processes    *
           *              working on a common directory               *
           ************************************************************
-------------------------------------------------------------------------------
                                 ORCA GUESS
                   Start orbitals & Density for SCF / CASSCF
-------------------------------------------------------------------------------

------------
SCF SETTINGS
------------
Hamiltonian:
 Density Functional     Method          .... DFT(GTOs)
  Functional kind                       .... Exchange-Correlation
  Functional name                       .... wB97M-V exchange-correlation functional
  Functional family                     .... Hybrid MGGA
  Functional refs                              
    [ 0] N. Mardirossian and M. Head-Gordon.,  J. Chem. Phys. 144, 214110 (2016), doi: 10.1063/1.4952647
  Fraction of HF Exchange (short range) .... 0.1500
  Fraction of HF Exchange (long range)  .... 1.0000
  Range separation parameter mu         .... 0.3000
  Functional external parameters        .... 17
    Parameter  0 _cx00      =  8.500000e-01 : u^00 coefficient for exchange
    Parameter  1 _cx01      =  1.007000e+00 : u^01 coefficient for exchange
    Parameter  2 _cx10      =  2.590000e-01 : u^10 coefficient for exchange
    Parameter  3 _css00     =  4.430000e-01 : u^00 coefficient for same-spin correlation
    Parameter  4 _css04     = -1.437000e+00 : u^04 coefficient for same-spin correlation
    Parameter  5 _css10     = -4.535000e+00 : u^10 coefficient for same-spin correlation
    Parameter  6 _css20     = -3.390000e+00 : u^20 coefficient for same-spin correlation
    Parameter  7 _css43     =  4.278000e+00 : u^43 coefficient for same-spin correlation
    Parameter  8 _cos00     =  1.000000e+00 : u^00 coefficient for opposite-spin correlation
    Parameter  9 _cos10     =  1.358000e+00 : u^10 coefficient for opposite-spin correlation
    Parameter 10 _cos20     =  2.924000e+00 : u^20 coefficient for opposite-spin correlation
    Parameter 11 _cos21     = -8.812000e+00 : u^21 coefficient for opposite-spin correlation
    Parameter 12 _cos60     = -1.390000e+00 : u^60 coefficient for opposite-spin correlation
    Parameter 13 _cos61     =  9.142000e+00 : u^61 coefficient for opposite-spin correlation
    Parameter 14 _alpha     =  1.000000e+00 : fraction of HF exchange
    Parameter 15 _beta      = -8.500000e-01 : fraction of short-range exchange
    Parameter 16 _omega     =  3.000000e-01 : range-separation constant
 Long-range corrected/Screened/Range-Separated Hybrid DFT is turned on
   Amount of maximum screened exact exchange              ....  0.850000
   Range separation parameter mu (erf(mu*r12)/r12)        ....  0.300000
 RI-approximation to the Coulomb term is turned on
   Number of AuxJ basis functions       .... 1014
   RIJ-COSX (HFX calculated with COS-X)).... on


General Settings:
 Integral files         IntName         .... orca
 Hartree-Fock type      HFTyp           .... UHF
 Total Charge           Charge          ....    0
 Multiplicity           Mult            ....    3
 Number of Electrons    NEL             ....  132
 Basis Dimension        Dim             ....  882
 Nuclear Repulsion      ENuc            ....   1401.2813088552 Eh

Convergence Acceleration:
 AO-DIIS                CNVDIIS         .... on
   Start iteration      DIISMaxIt       ....    12
   Startup error        DIISStart       ....  0.200000
   # of expansion vecs  DIISMaxEq       ....     5
   Bias factor          DIISBfac        ....   1.050
   Max. coefficient     DIISMaxC        ....  10.000
 MO-DIIS                CNVKDIIS        .... off
 Trust-Rad. Augm. Hess. CNVTRAH         .... auto
   Auto Start mean grad. ratio tolernc. ....  1.125000
   Auto Start start iteration           ....    50
   Auto Start num. interpolation iter.  ....    10
   Max. Number of Micro iterations      ....    24
   Max. Number of Macro iterations      .... Maxiter - #DIIS iter
   Number of Davidson start vectors     ....     2
   Converg. threshold    (grad. norm)   ....   1.000e-05
   Grad. Scal. Fac. for Micro threshold ....   0.100
   Minimum threshold for Micro iter.    ....   1.000e-02
   NR start threshold (gradient norm)   ....   1.000e-04
   Initial trust radius                 ....   0.400
   Minimum AH scaling param. (alpha)    ....   1.000
   Maximum AH scaling param. (alpha)    .... 1000.000
   Quad. conv. algorithm                .... NR
   White noise on init. David. guess    .... on
   Maximum white noise                  ....   0.010
   Pseudo random numbers                .... off
   Inactive MOs                         .... canonical
   Orbital update algorithm             .... Taylor
   Preconditioner                       .... Diag
   Full preconditioner red. dimension   ....   250
 SOSCF                  CNVSOSCF        .... on
   Start iteration      SOSCFMaxIt      ....   150
   Startup grad/error   SOSCFStart      ....  0.003300
   Hessian update       SOSCFHessUp     .... L-BFGS
 Level Shifting         CNVShift        .... on
   Level shift para.    LevelShift      ....    0.2500
   Turn off err/grad.   ShiftErr        ....    0.0010
 Zerner damping         CNVZerner       .... off
 Static damping         CNVDamp         .... on
   Fraction old density DampFac         ....    0.7000
   Max. Damping (<1)    DampMax         ....    0.9800
   Min. Damping (>=0)   DampMin         ....    0.0000
   Turn off err/grad.   DampErr         ....    0.1000

SCF Procedure:
 Maximum # iterations   MaxIter         ....   125
 SCF integral mode      SCFMode         .... Direct
   Integral package                     .... SHARK and LIBINT hybrid scheme
 Reset frequency        DirectResetFreq ....    20
 Integral Threshold     Thresh          ....  1.000e-12 Eh
 Primitive CutOff       TCut            ....  1.000e-13 Eh

Convergence Tolerance:
 Convergence Check Mode ConvCheckMode   .... Total+1el-Energy
 Convergence forced     ConvForced      .... 1
 Energy Change          TolE            ....  1.000e-08 Eh
 1-El. energy change                    ....  1.000e-05 Eh
 Orbital Gradient       TolG            ....  1.000e-05
 Orbital Rotation angle TolX            ....  1.000e-05
 DIIS Error             TolErr          ....  5.000e-07

------------------------------
INITIAL GUESS: MODEL POTENTIAL
------------------------------
Loading Hartree-Fock densities                     ... done
Calculating cut-offs                               ... done
Initializing the effective Hamiltonian             ... done
Setting up the integral package (SHARK)            ... done
Starting the Coulomb interaction                   ... done (   0.1 sec)
Making the grid                                    ... done (   0.3 sec)
Mapping shells                                     ... done
Starting the XC term evaluation                    ... done (   0.1 sec)
  promolecular density results
     # of electrons  =    132.010020826
     EX              =   -113.606553423
     EC              =     -4.504334820
     EX+EC           =   -118.110888243
Transforming the Hamiltonian                       ... done (   0.1 sec)
Diagonalizing the Hamiltonian                      ... done (   0.1 sec)
Back transforming the eigenvectors                 ... done (   0.1 sec)
Now organizing SCF variables                       ... done
                      ------------------
                      INITIAL GUESS DONE (   1.1 sec)
                      ------------------
             **** ENERGY FILE WAS UPDATED (orca.en.tmp) ****
Finished Guess after   3.5 sec
Maximum memory used throughout the entire GUESS-calculation: 71.2 MB
[1739930087.181359] [ohm:706942:0]        ib_iface.c:1059 UCX  ERROR ibv_create_cq(cqe=256) failed: Connection timed out
[1739930087.182997] [ohm:706955:0]        ib_iface.c:1059 UCX  ERROR ibv_create_cq(cqe=256) failed: Connection timed out
[1739930087.184349] [ohm:706939:0]        ib_iface.c:1059 UCX  ERROR ibv_create_cq(cqe=256) failed: Connection timed out
[1739930087.196294] [ohm:706938:0]        ib_iface.c:1059 UCX  ERROR ibv_create_cq(cqe=256) failed: Connection timed out
[1739930087.196448] [ohm:706941:0]        ib_iface.c:1059 UCX  ERROR ibv_create_cq(cqe=256) failed: Connection timed out
[1739930087.196598] [ohm:706945:0]        ib_iface.c:1059 UCX  ERROR ibv_create_cq(cqe=256) failed: Connection timed out
[1739930087.198004] [ohm:706943:0]        ib_iface.c:1059 UCX  ERROR ibv_create_cq(cqe=256) failed: Connection timed out
[1739930087.200003] [ohm:706948:0]        ib_iface.c:1059 UCX  ERROR ibv_create_cq(cqe=256) failed: Connection timed out
[1739930087.219515] [ohm:706949:0]        ib_iface.c:1059 UCX  ERROR ibv_create_cq(cqe=256) failed: Connection timed out
[1739930087.223727] [ohm:706954:0]        ib_iface.c:1059 UCX  ERROR ibv_create_cq(cqe=256) failed: Connection timed out
[1739930087.232539] [ohm:706958:0]        ib_iface.c:1059 UCX  ERROR ibv_create_cq(cqe=256) failed: Connection timed out
[1739930087.241034] [ohm:706964:0]        ib_iface.c:1059 UCX  ERROR ibv_create_cq(cqe=256) failed: Connection timed out
[1739930087.243392] [ohm:706962:0]        ib_iface.c:1059 UCX  ERROR ibv_create_cq(cqe=256) failed: Connection timed out
[1739930087.243540] [ohm:707015:0]        ib_iface.c:1059 UCX  ERROR ibv_create_cq(cqe=256) failed: Connection timed out
[1739930087.248046] [ohm:706953:0]        ib_iface.c:1059 UCX  ERROR ibv_create_cq(cqe=256) failed: Connection timed out
[1739930087.261827] [ohm:707026:0]        ib_iface.c:1059 UCX  ERROR ibv_create_cq(cqe=256) failed: Connection timed out
[1739930087.263698] [ohm:706975:0]        ib_iface.c:1059 UCX  ERROR ibv_create_cq(cqe=256) failed: Connection timed out
[1739930087.286892] [ohm:706993:0]        ib_iface.c:1059 UCX  ERROR ibv_create_cq(cqe=256) failed: Connection timed out
[1739930087.293987] [ohm:707068:0]        ib_iface.c:1059 UCX  ERROR ibv_create_cq(cqe=256) failed: Connection timed out
[1739930087.326412] [ohm:707081:0]        ib_iface.c:1059 UCX  ERROR ibv_create_cq(cqe=256) failed: Connection timed out
[1739930087.335480] [ohm:706957:0]        ib_iface.c:1059 UCX  ERROR ibv_create_cq(cqe=256) failed: Connection timed out
[1739930087.353041] [ohm:707074:0]        ib_iface.c:1059 UCX  ERROR ibv_create_cq(cqe=256) failed: Connection timed out
[1739930087.353452] [ohm:707024:0]        ib_iface.c:1059 UCX  ERROR ibv_create_cq(cqe=256) failed: Connection timed out
[1739930087.357021] [ohm:707056:0]        ib_iface.c:1059 UCX  ERROR ibv_create_cq(cqe=256) failed: Connection timed out
[1739930087.366357] [ohm:707039:0]        ib_iface.c:1059 UCX  ERROR ibv_create_cq(cqe=256) failed: Connection timed out
[1739930087.368941] [ohm:707058:0]        ib_iface.c:1059 UCX  ERROR ibv_create_cq(cqe=256) failed: Connection timed out
[1739930087.375255] [ohm:707032:0]        ib_iface.c:1059 UCX  ERROR ibv_create_cq(cqe=256) failed: Connection timed out
[1739930087.375569] [ohm:707002:0]        ib_iface.c:1059 UCX  ERROR ibv_create_cq(cqe=256) failed: Connection timed out
[1739930087.377510] [ohm:707073:0]        ib_iface.c:1059 UCX  ERROR ibv_create_cq(cqe=256) failed: Connection timed out
[1739930087.378187] [ohm:707048:0]        ib_iface.c:1059 UCX  ERROR ibv_create_cq(cqe=256) failed: Connection timed out
[1739930087.381012] [ohm:707008:0]        ib_iface.c:1059 UCX  ERROR ibv_create_cq(cqe=256) failed: Connection timed out
[1739930087.400654] [ohm:706995:0]        ib_iface.c:1059 UCX  ERROR ibv_create_cq(cqe=256) failed: Connection timed out
[1739930087.402907] [ohm:707090:0]        ib_iface.c:1059 UCX  ERROR ibv_create_cq(cqe=256) failed: Connection timed out
[1739930087.406907] [ohm:707061:0]        ib_iface.c:1059 UCX  ERROR ibv_create_cq(cqe=256) failed: Connection timed out
[1739930087.407968] [ohm:707034:0]        ib_iface.c:1059 UCX  ERROR ibv_create_cq(cqe=256) failed: Connection timed out
[1739930087.409610] [ohm:706984:0]        ib_iface.c:1059 UCX  ERROR ibv_create_cq(cqe=256) failed: Connection timed out
[1739930087.422675] [ohm:706988:0]        ib_iface.c:1059 UCX  ERROR ibv_create_cq(cqe=256) failed: Connection timed out
[1739930087.425904] [ohm:706961:0]        ib_iface.c:1059 UCX  ERROR ibv_create_cq(cqe=256) failed: Connection timed out
[1739930087.426769] [ohm:706952:0]        ib_iface.c:1059 UCX  ERROR ibv_create_cq(cqe=256) failed: Connection timed out
[1739930087.429865] [ohm:706940:0]        ib_iface.c:1059 UCX  ERROR ibv_create_cq(cqe=256) failed: Connection timed out
[1739930087.431396] [ohm:706956:0]        ib_iface.c:1059 UCX  ERROR ibv_create_cq(cqe=256) failed: Connection timed out
[1739930087.431907] [ohm:707044:0]        ib_iface.c:1059 UCX  ERROR ibv_create_cq(cqe=256) failed: Connection timed out
[1739930087.439066] [ohm:706960:0]        ib_iface.c:1059 UCX  ERROR ibv_create_cq(cqe=256) failed: Connection timed out
[1739930087.440616] [ohm:707066:0]        ib_iface.c:1059 UCX  ERROR ibv_create_cq(cqe=256) failed: Connection timed out
[1739930087.442755] [ohm:706944:0]        ib_iface.c:1059 UCX  ERROR ibv_create_cq(cqe=256) failed: Connection timed out
[1739930087.444442] [ohm:707052:0]        ib_iface.c:1059 UCX  ERROR ibv_create_cq(cqe=256) failed: Connection timed out
[1739930087.444633] [ohm:706998:0]        ib_iface.c:1059 UCX  ERROR ibv_create_cq(cqe=256) failed: Connection timed out
[1739930087.446294] [ohm:707049:0]        ib_iface.c:1059 UCX  ERROR ibv_create_cq(cqe=256) failed: Connection timed out
[1739930087.458411] [ohm:706946:0]        ib_iface.c:1059 UCX  ERROR ibv_create_cq(cqe=256) failed: Connection timed out
[1739930087.459422] [ohm:706947:0]        ib_iface.c:1059 UCX  ERROR ibv_create_cq(cqe=256) failed: Connection timed out
[1739930087.463192] [ohm:706978:0]        ib_iface.c:1059 UCX  ERROR ibv_create_cq(cqe=256) failed: Connection timed out
[1739930087.464851] [ohm:706968:0]        ib_iface.c:1059 UCX  ERROR ibv_create_cq(cqe=256) failed: Connection timed out
[1739930087.465092] [ohm:706972:0]        ib_iface.c:1059 UCX  ERROR ibv_create_cq(cqe=256) failed: Connection timed out
[1739930087.472452] [ohm:706959:0]        ib_iface.c:1059 UCX  ERROR ibv_create_cq(cqe=256) failed: Connection timed out
[1739930087.472443] [ohm:707009:0]        ib_iface.c:1059 UCX  ERROR ibv_create_cq(cqe=256) failed: Connection timed out
[1739930087.473176] [ohm:707028:0]        ib_iface.c:1059 UCX  ERROR ibv_create_cq(cqe=256) failed: Connection timed out
[1739930087.474230] [ohm:706991:0]        ib_iface.c:1059 UCX  ERROR ibv_create_cq(cqe=256) failed: Connection timed out
[1739930087.475374] [ohm:707022:0]        ib_iface.c:1059 UCX  ERROR ibv_create_cq(cqe=256) failed: Connection timed out
[1739930087.476439] [ohm:706950:0]        ib_iface.c:1059 UCX  ERROR ibv_create_cq(cqe=256) failed: Connection timed out
[1739930087.476867] [ohm:706983:0]        ib_iface.c:1059 UCX  ERROR ibv_create_cq(cqe=256) failed: Connection timed out
[1739930087.478254] [ohm:706963:0]        ib_iface.c:1059 UCX  ERROR ibv_create_cq(cqe=256) failed: Connection timed out
[1739930087.480283] [ohm:706951:0]        ib_iface.c:1059 UCX  ERROR ibv_create_cq(cqe=256) failed: Connection timed out
[1739930087.480385] [ohm:706967:0]        ib_iface.c:1059 UCX  ERROR ibv_create_cq(cqe=256) failed: Connection timed out
[1739930087.481167] [ohm:707019:0]        ib_iface.c:1059 UCX  ERROR ibv_create_cq(cqe=256) failed: Connection timed out


           ************************************************************
           *        Program running with 64 parallel MPI-processes    *
           *              working on a common directory               *
           ************************************************************

-------------------------------------------------------------------------------------------
                                      ORCA LEAN-SCF
                              memory conserving SCF solver
-------------------------------------------------------------------------------------------

----------------------------------------D-I-I-S--------------------------------------------
Iteration    Energy (Eh)           Delta-E    RMSDP     MaxDP     DIISErr   Damp  Time(sec)
-------------------------------------------------------------------------------------------
               ***  Starting incremental Fock matrix formation  ***
    1    -908.1282258469150293     0.00e+00  1.66e-03  3.22e-01  1.50e-01  0.700   8.1
    2    -908.3935480300956442    -2.65e-01  1.36e-03  2.20e-01  7.31e-02  0.700   6.5
                               ***Turning on AO-DIIS***
    3    -908.5116375499437709    -1.18e-01  9.79e-04  1.62e-01  2.85e-02  0.700   5.8
    4    -908.5838040721178004    -7.22e-02  2.34e-03  3.12e-01  2.05e-02  0.000   5.8
    5    -908.7454381482543795    -1.62e-01  3.19e-04  7.26e-02  5.46e-03  0.000   5.9
                              *** Initializing SOSCF ***
---------------------------------------S-O-S-C-F--------------------------------------
Iteration    Energy (Eh)           Delta-E    RMSDP     MaxDP     MaxGrad    Time(sec)
--------------------------------------------------------------------------------------
    6    -908.7465685519086946    -1.13e-03  1.46e-04  3.68e-02  2.75e-03     6.6
               *** Restarting incremental Fock matrix formation ***
    7    -908.7470477136325826    -4.79e-04  2.96e-04  3.23e-02  2.50e-03     7.8
    8    -908.7473264096706771    -2.79e-04  2.73e-04  5.50e-02  1.26e-03     6.9
    9    -908.7474139482847022    -8.75e-05  1.62e-04  1.53e-02  7.12e-04     6.9
   10    -908.7474651651386921    -5.12e-05  2.99e-05  8.32e-03  2.43e-04     6.8
   11    -908.7474696407580268    -4.48e-06  9.19e-06  1.21e-03  1.06e-04     6.5
   12    -908.7474708816807834    -1.24e-06  4.86e-06  7.57e-04  8.83e-05     6.2
   13    -908.7474714688037238    -5.87e-07  4.22e-06  8.21e-04  2.06e-05     6.1
   14    -908.7474715366274722    -6.78e-08  1.66e-06  2.84e-04  1.34e-05     6.1
   15    -908.7474715593816654    -2.28e-08  2.83e-06  4.76e-04  4.79e-06     5.8
   16    -908.7474715703219772    -1.09e-08  1.63e-06  3.25e-04  2.92e-06     5.7
   17    -908.7474715403732262     2.99e-08  4.71e-06  1.10e-03  9.07e-07     5.5
                  *** Gradient check signals convergence ***

               *****************************************************
               *                     SUCCESS                       *
               *           SCF CONVERGED AFTER  17 CYCLES          *
               *****************************************************

Recomputing exchange energy using gridx3       ... done (    7.556 sec)
Old exchange energy                            :    -35.061224681 Eh
New exchange energy                            :    -35.061216022 Eh
Exchange energy change after final integration :      0.000008659 Eh
Total energy after final integration           :   -908.747462881 Eh
             **** ENERGY FILE WAS UPDATED (orca.en.tmp) ****

----------------
TOTAL SCF ENERGY
----------------

Total Energy       :       -908.74746288145241 Eh          -24728.27563 eV

Components:
Nuclear Repulsion  :       1401.28130885522705 Eh           38130.80295 eV
Electronic Energy  :      -2310.02878039560028 Eh          -62859.07881 eV
One Electron Energy:      -4019.02254913464003 Eh         -109363.16348 eV
Two Electron Energy:       1708.99376873903975 Eh           46504.08467 eV

Virial components:
Potential Energy   :      -1814.94112929323819 Eh          -49387.05892 eV
Kinetic Energy     :        906.19366641178590 Eh           24658.78329 eV
Virial Ratio       :          2.00281815749141

DFT components:
N(Alpha)           :       66.999999987112 electrons
N(Beta)            :       64.999996666055 electrons
N(Total)           :      131.999996653167 electrons
E(XC)              :      -86.332881925569 Eh       

---------------
SCF CONVERGENCE
---------------

  Last Energy change         ...   -2.9949e-08  Tolerance :   1.0000e-08
  Last MAX-Density change    ...    1.0999e-03  Tolerance :   1.0000e-07
  Last RMS-Density change    ...    4.7141e-06  Tolerance :   5.0000e-09
  Last DIIS Error            ...    2.7495e-03  Tolerance :   5.0000e-07
  Last Orbital Gradient      ...    9.0707e-07  Tolerance :   1.0000e-05
  Last Orbital Rotation      ...    6.2386e-06  Tolerance :   1.0000e-05


----------------------
UHF SPIN CONTAMINATION
----------------------

Warning: in a DFT calculation there is little theoretical justification to 
         calculate <S**2> as in Hartree-Fock theory. We will do it anyways
         but you should keep in mind that the values have only limited relevance

Expectation value of <S**2>     :     2.012601
Ideal value S*(S+1) for S=1.0   :     2.000000
Deviation                       :     0.012601

----------------
ORBITAL ENERGIES
----------------
                 SPIN UP ORBITALS
  NO   OCC          E(Eh)            E(eV) 
   0   1.0000     -19.332827      -526.0730 
   1   1.0000     -19.331935      -526.0487 
   2   1.0000     -19.328164      -525.9461 
   3   1.0000     -19.325596      -525.8762 
   4   1.0000     -14.563318      -396.2880 
   5   1.0000     -14.563070      -396.2813 
   6   1.0000     -14.563028      -396.2801 
   7   1.0000     -14.558916      -396.1683 
   8   1.0000     -10.506542      -285.8975 
   9   1.0000     -10.504150      -285.8325 
  10   1.0000     -10.483452      -285.2692 
  11   1.0000     -10.473188      -284.9899 
  12   1.0000     -10.458498      -284.5902 
  13   1.0000     -10.444235      -284.2021 
  14   1.0000     -10.422280      -283.6047 
  15   1.0000     -10.418344      -283.4976 
  16   1.0000     -10.384664      -282.5811 
  17   1.0000     -10.381959      -282.5075 
  18   1.0000      -1.234084       -33.5811 
  19   1.0000      -1.232145       -33.5284 
  20   1.0000      -1.212330       -32.9892 
  21   1.0000      -1.210345       -32.9352 
  22   1.0000      -1.126096       -30.6426 
  23   1.0000      -1.106426       -30.1074 
  24   1.0000      -1.070404       -29.1272 
  25   1.0000      -1.059599       -28.8331 
  26   1.0000      -0.987819       -26.8799 
  27   1.0000      -0.962163       -26.1818 
  28   1.0000      -0.898049       -24.4371 
  29   1.0000      -0.849844       -23.1254 
  30   1.0000      -0.830062       -22.5871 
  31   1.0000      -0.792250       -21.5582 
  32   1.0000      -0.787162       -21.4198 
  33   1.0000      -0.777627       -21.1603 
  34   1.0000      -0.707100       -19.2412 
  35   1.0000      -0.706029       -19.2120 
  36   1.0000      -0.690557       -18.7910 
  37   1.0000      -0.685593       -18.6559 
  38   1.0000      -0.649575       -17.6758 
  39   1.0000      -0.636310       -17.3149 
  40   1.0000      -0.624429       -16.9916 
  41   1.0000      -0.610752       -16.6194 
  42   1.0000      -0.602586       -16.3972 
  43   1.0000      -0.589072       -16.0295 
  44   1.0000      -0.583657       -15.8821 
  45   1.0000      -0.575294       -15.6546 
  46   1.0000      -0.574847       -15.6424 
  47   1.0000      -0.571138       -15.5415 
  48   1.0000      -0.567119       -15.4321 
  49   1.0000      -0.559632       -15.2284 
  50   1.0000      -0.556452       -15.1418 
  51   1.0000      -0.546741       -14.8776 
  52   1.0000      -0.539170       -14.6716 
  53   1.0000      -0.529999       -14.4220 
  54   1.0000      -0.520856       -14.1732 
  55   1.0000      -0.511467       -13.9177 
  56   1.0000      -0.494558       -13.4576 
  57   1.0000      -0.432626       -11.7724 
  58   1.0000      -0.424492       -11.5510 
  59   1.0000      -0.416879       -11.3438 
  60   1.0000      -0.408625       -11.1193 
  61   1.0000      -0.403399       -10.9770 
  62   1.0000      -0.397280       -10.8105 
  63   1.0000      -0.390345       -10.6218 
  64   1.0000      -0.385962       -10.5026 
  65   1.0000      -0.344357        -9.3704 
  66   1.0000      -0.336431        -9.1547 
  67   0.0000       0.008091         0.2202 
  68   0.0000       0.029992         0.8161 
  69   0.0000       0.031781         0.8648 
  70   0.0000       0.033930         0.9233 
  71   0.0000       0.053439         1.4541 
  72   0.0000       0.056419         1.5352 
  73   0.0000       0.059059         1.6071 
  74   0.0000       0.061989         1.6868 
  75   0.0000       0.066695         1.8149 
  76   0.0000       0.070203         1.9103 
  77   0.0000       0.073552         2.0015 

                 SPIN DOWN ORBITALS
  NO   OCC          E(Eh)            E(eV) 
   0   1.0000     -19.329252      -525.9757 
   1   1.0000     -19.328038      -525.9427 
   2   1.0000     -19.327570      -525.9299 
   3   1.0000     -19.325500      -525.8736 
   4   1.0000     -14.562954      -396.2781 
   5   1.0000     -14.562866      -396.2757 
   6   1.0000     -14.562836      -396.2749 
   7   1.0000     -14.558353      -396.1529 
   8   1.0000     -10.506580      -285.8986 
   9   1.0000     -10.504202      -285.8339 
  10   1.0000     -10.484398      -285.2950 
  11   1.0000     -10.474128      -285.0155 
  12   1.0000     -10.459158      -284.6082 
  13   1.0000     -10.443726      -284.1882 
  14   1.0000     -10.410517      -283.2846 
  15   1.0000     -10.406790      -283.1832 
  16   1.0000     -10.385301      -282.5984 
  17   1.0000     -10.382470      -282.5214 
  18   1.0000      -1.232030       -33.5252 
  19   1.0000      -1.230195       -33.4753 
  20   1.0000      -1.208375       -32.8816 
  21   1.0000      -1.206445       -32.8290 
  22   1.0000      -1.123455       -30.5708 
  23   1.0000      -1.104505       -30.0551 
  24   1.0000      -1.068804       -29.0836 
  25   1.0000      -1.058423       -28.8011 
  26   1.0000      -0.975541       -26.5458 
  27   1.0000      -0.944064       -25.6893 
  28   1.0000      -0.892611       -24.2892 
  29   1.0000      -0.844690       -22.9852 
  30   1.0000      -0.821072       -22.3425 
  31   1.0000      -0.790435       -21.5088 
  32   1.0000      -0.782809       -21.3013 
  33   1.0000      -0.776224       -21.1221 
  34   1.0000      -0.702091       -19.1049 
  35   1.0000      -0.697922       -18.9914 
  36   1.0000      -0.685230       -18.6461 
  37   1.0000      -0.678016       -18.4497 
  38   1.0000      -0.642711       -17.4891 
  39   1.0000      -0.625118       -17.0103 
  40   1.0000      -0.621202       -16.9038 
  41   1.0000      -0.604059       -16.4373 
  42   1.0000      -0.597618       -16.2620 
  43   1.0000      -0.585840       -15.9415 
  44   1.0000      -0.576777       -15.6949 
  45   1.0000      -0.570456       -15.5229 
  46   1.0000      -0.568429       -15.4677 
  47   1.0000      -0.564743       -15.3674 
  48   1.0000      -0.555156       -15.1066 
  49   1.0000      -0.553284       -15.0556 
  50   1.0000      -0.548096       -14.9145 
  51   1.0000      -0.540227       -14.7003 
  52   1.0000      -0.529516       -14.4089 
  53   1.0000      -0.521872       -14.2009 
  54   1.0000      -0.515615       -14.0306 
  55   1.0000      -0.504880       -13.7385 
  56   1.0000      -0.489870       -13.3300 
  57   1.0000      -0.428358       -11.6562 
  58   1.0000      -0.422108       -11.4862 
  59   1.0000      -0.407457       -11.0875 
  60   1.0000      -0.400511       -10.8985 
  61   1.0000      -0.396643       -10.7932 
  62   1.0000      -0.393123       -10.6974 
  63   1.0000      -0.385962       -10.5026 
  64   1.0000      -0.381812       -10.3896 
  65   0.0000      -0.055507        -1.5104 
  66   0.0000      -0.051689        -1.4065 
  67   0.0000       0.007837         0.2132 
  68   0.0000       0.029481         0.8022 
  69   0.0000       0.032008         0.8710 
  70   0.0000       0.033680         0.9165 
  71   0.0000       0.053219         1.4482 
  72   0.0000       0.056443         1.5359 
  73   0.0000       0.058988         1.6052 
  74   0.0000       0.062030         1.6879 
  75   0.0000       0.067708         1.8424 
*Only the first 10 virtual orbitals were printed.

                    ********************************
                    * MULLIKEN POPULATION ANALYSIS *
                    ********************************

--------------------------------------------
MULLIKEN ATOMIC CHARGES AND SPIN POPULATIONS
--------------------------------------------
   0 O :   -0.618832    0.159732
   1 O :   -0.654329    0.131317
   2 O :   -0.611899    0.002825
   3 O :   -0.631378    0.003374
   4 N :   -0.310187    0.056226
   5 N :   -0.178046    0.019344
   6 N :   -0.122009    0.006406
   7 N :   -0.072789    0.023160
   8 C :   -0.074052    0.455002
   9 C :    0.100311    0.488187
  10 C :    0.890577    0.056124
  11 C :    0.467901    0.172972
  12 C :   -1.447303   -0.016415
  13 C :   -1.317223   -0.000699
  14 C :    0.512123    0.134650
  15 C :    0.434700    0.110782
  16 C :    0.197704   -0.000526
  17 C :    0.437878   -0.004021
  18 H :    0.370490    0.075297
  19 H :    0.500198    0.021295
  20 H :    0.360478    0.012135
  21 H :    0.234087    0.034267
  22 H :    0.300841    0.007497
  23 H :    0.256591   -0.000566
  24 H :    0.275608    0.038363
  25 H :    0.389258    0.019239
  26 H :    0.113834    0.000544
  27 H :    0.015233   -0.003296
  28 H :    0.140955   -0.000557
  29 H :    0.039277   -0.002657
Sum of atomic charges         :   -0.0000000
Sum of atomic spin populations:    2.0000000

-----------------------------------------------------
MULLIKEN REDUCED ORBITAL CHARGES AND SPIN POPULATIONS
-----------------------------------------------------
CHARGE
  0 O s       :     4.062211  s :     4.062211
      pz      :     1.458814  p :     4.522492
      px      :     1.322559
      py      :     1.741119
      dz2     :     0.002942  d :     0.032102
      dxz     :     0.013564
      dyz     :    -0.000807
      dx2y2   :     0.008120
      dxy     :     0.008282
      f0      :     0.000218  f :     0.002026
      f+1     :     0.000225
      f-1     :     0.000037
      f+2     :     0.000373
      f-2     :     0.000120
      f+3     :     0.000513
      f-3     :     0.000540

  1 O s       :     4.091095  s :     4.091095
      pz      :     1.352447  p :     4.529118
[...]
[1739930338.524989] [ohm:709183:0]        ib_iface.c:1059 UCX  ERROR ibv_create_cq(cqe=256) failed: Connection timed out
[1739930338.525051] [ohm:709291:0]        ib_iface.c:1059 UCX  ERROR ibv_create_cq(cqe=256) failed: Connection timed out
[1739930338.525724] [ohm:709188:0]        ib_iface.c:1059 UCX  ERROR ibv_create_cq(cqe=256) failed: Connection timed out
[1739930338.526583] [ohm:709199:0]        ib_iface.c:1059 UCX  ERROR ibv_create_cq(cqe=256) failed: Connection timed out
[1739930338.527858] [ohm:709173:0]        ib_iface.c:1059 UCX  ERROR ibv_create_cq(cqe=256) failed: Connection timed out
[1739930338.528158] [ohm:709259:0]        ib_iface.c:1059 UCX  ERROR ibv_create_cq(cqe=256) failed: Connection timed out
[1739930338.528756] [ohm:709242:0]        ib_iface.c:1059 UCX  ERROR ibv_create_cq(cqe=256) failed: Connection timed out
[1739930338.529203] [ohm:709229:0]        ib_iface.c:1059 UCX  ERROR ibv_create_cq(cqe=256) failed: Connection timed out
[1739930338.529268] [ohm:709262:0]        ib_iface.c:1059 UCX  ERROR ibv_create_cq(cqe=256) failed: Connection timed out
[1739930338.531654] [ohm:709193:0]        ib_iface.c:1059 UCX  ERROR ibv_create_cq(cqe=256) failed: Connection timed out
[1739930338.538128] [ohm:709174:0]        ib_iface.c:1059 UCX  ERROR ibv_create_cq(cqe=256) failed: Connection timed out


           ************************************************************
           *        Program running with 64 parallel MPI-processes    *
           *              working on a common directory               *
           ************************************************************

------------------------------------------------------------------------------
                              ORCA PROPERTY CALCULATIONS
------------------------------------------------------------------------------

GBWName                                 ... orca.gbw
Number of atoms                         ...     30
Number of basis functions               ...    882
Max core memory                         ...   1024 MB

Electric properties:
Dipole moment                           ... YES
Quadrupole moment                       ...  NO
Static polarizability (Dipole/Dipole)   ...  NO
Static polarizability (Dipole/Quad.)    ...  NO
Static polarizability (Quad./Quad.)     ...  NO
Static polarizability (Velocity)        ...  NO

Atomic electric properties:
Dipole moment                           ...  NO
Quadrupole moment                       ...  NO
Static polarizability                   ...  NO

Choice of electric origin               ... Center of mass
Position of electric origin             ...    -0.029814    -0.068160     0.256643

General magnetic properties:
Magnetizability                         ...  NO

EPR properties:
g-Tensor (aka g-matrix)                 ...  NO
Zero-Field splitting spin-orbit         ...  NO
Zero-field splitting spin-spin          ...  NO
Hyperfine couplings                     ...  NO (   0 nuclei)
Quadrupole couplings                    ...  NO (   0 nuclei)
Contact density                         ...  NO (   0 nuclei)

NMR properties:
Chemical shifts                         ...  NO (   0 nuclei)
Spin-rotation constants                 ...  NO (   0 nuclei)
Spin-spin couplings                     ...  NO (   0 nuclei,    0 pairs)

Choice of magnetic origin               ... GIAO
Position of magnetic origin             ...     0.000000     0.000000     0.000000

Properties with geometric perturbations:
SCF Hessian                             ...  NO
IR spectrum                             ...  NO
VCD spectrum                            ...  NO
X-ray spectroscopy properties:
SCF XES/XAS/RIXS spectra                ...  NO


-------------
DIPOLE MOMENT
-------------

Method             : SCF
Type of density    : Electron Density
Multiplicity       :   3
Irrep              :   0
Energy             :  -908.7474628814524067 Eh
Relativity type    : 
Basis              : AO
                                X                 Y                 Z
Electronic contribution:     -3.507541514      -9.762420840      -5.373410485
Nuclear contribution   :      3.688139183      11.280445538       7.167062232
                        -----------------------------------------
Total Dipole Moment    :      0.180597670       1.518024698       1.793651747
                        -----------------------------------------
Magnitude (a.u.)       :      2.356735261
Magnitude (Debye)      :      5.990344972



--------------------
Rotational spectrum 
--------------------
 
Rotational constants in cm-1:             0.021372             0.011307             0.009152 
Rotational constants in MHz :           640.723939           338.982130           274.366719 

Dipole components along the rotational axes: 
x,y,z [a.u.] :    -0.201128    -1.837648    -1.461779 
x,y,z [Debye]:    -0.511227    -4.670931    -3.715547 

 

-------------
DIPOLE MOMENT
-------------

Method             : TDA/CIS
Type of density    : Electron Density
Level              : Relaxed density
State              :   2
Multiplicity       :   3
Irrep              :   0
Energy             :     0.0000000000000000 Eh
Relativity type    : 
Basis              : AO
                                X                 Y                 Z
Electronic contribution:     -3.555664065      -9.698776756      -5.311530959
Nuclear contribution   :      3.688139183      11.280445538       7.167062232
                        -----------------------------------------
Total Dipole Moment    :      0.132475118       1.581668781       1.855531273
                        -----------------------------------------
Magnitude (a.u.)       :      2.441766184
Magnitude (Debye)      :      6.206476403



--------------------
Rotational spectrum 
--------------------
 
Rotational constants in cm-1:             0.021372             0.011307             0.009152 
Rotational constants in MHz :           640.723939           338.982130           274.366719 

Dipole components along the rotational axes: 
x,y,z [a.u.] :    -0.153333    -1.904046    -1.520960 
x,y,z [Debye]:    -0.389742    -4.839700    -3.865974 

 

Dipole moment calculation done in   0.1 sec 

Maximum memory used throughout the entire PROP-calculation: 80.5 MB
[1739930341.115480] [ohm:709506:0]        ib_iface.c:1059 UCX  ERROR ibv_create_cq(cqe=256) failed: Connection timed out
[1739930341.119872] [ohm:709553:0]        ib_iface.c:1059 UCX  ERROR ibv_create_cq(cqe=256) failed: Connection timed out
[1739930341.130506] [ohm:709505:0]        ib_iface.c:1059 UCX  ERROR ibv_create_cq(cqe=256) failed: Connection timed out
[1739930341.138799] [ohm:709510:0]        ib_iface.c:1059 UCX  ERROR ibv_create_cq(cqe=256) failed: Connection timed out
[1739930341.139150] [ohm:709507:0]        ib_iface.c:1059 UCX  ERROR ibv_create_cq(cqe=256) failed: Connection timed out
[1739930341.142930] [ohm:709585:0]        ib_iface.c:1059 UCX  ERROR ibv_create_cq(cqe=256) failed: Connection timed out
[1739930341.148709] [ohm:709513:0]        ib_iface.c:1059 UCX  ERROR ibv_create_cq(cqe=256) failed: Connection timed out
[1739930341.152908] [ohm:709525:0]        ib_iface.c:1059 UCX  ERROR ibv_create_cq(cqe=256) failed: Connection timed out
[1739930341.188592] [ohm:709559:0]        ib_iface.c:1059 UCX  ERROR ibv_create_cq(cqe=256) failed: Connection timed out
[1739930341.204178] [ohm:709548:0]        ib_iface.c:1059 UCX  ERROR ibv_create_cq(cqe=256) failed: Connection timed out
[1739930341.207491] [ohm:709538:0]        ib_iface.c:1059 UCX  ERROR ibv_create_cq(cqe=256) failed: Connection timed out
[1739930341.215212] [ohm:709518:0]        ib_iface.c:1059 UCX  ERROR ibv_create_cq(cqe=256) failed: Connection timed out
[1739930341.216824] [ohm:709526:0]        ib_iface.c:1059 UCX  ERROR ibv_create_cq(cqe=256) failed: Connection timed out
[1739930341.223853] [ohm:709642:0]        ib_iface.c:1059 UCX  ERROR ibv_create_cq(cqe=256) failed: Connection timed out
[1739930341.239298] [ohm:709572:0]        ib_iface.c:1059 UCX  ERROR ibv_create_cq(cqe=256) failed: Connection timed out
[1739930341.246118] [ohm:709523:0]        ib_iface.c:1059 UCX  ERROR ibv_create_cq(cqe=256) failed: Connection timed out
[1739930341.272169] [ohm:709620:0]        ib_iface.c:1059 UCX  ERROR ibv_create_cq(cqe=256) failed: Connection timed out
[1739930341.283618] [ohm:709542:0]        ib_iface.c:1059 UCX  ERROR ibv_create_cq(cqe=256) failed: Connection timed out
[1739930341.287442] [ohm:709566:0]        ib_iface.c:1059 UCX  ERROR ibv_create_cq(cqe=256) failed: Connection timed out
[1739930341.300467] [ohm:709588:0]        ib_iface.c:1059 UCX  ERROR ibv_create_cq(cqe=256) failed: Connection timed out
[1739930341.304750] [ohm:709527:0]        ib_iface.c:1059 UCX  ERROR ibv_create_cq(cqe=256) failed: Connection timed out
[1739930341.317803] [ohm:709524:0]        ib_iface.c:1059 UCX  ERROR ibv_create_cq(cqe=256) failed: Connection timed out
[1739930341.326522] [ohm:709629:0]        ib_iface.c:1059 UCX  ERROR ibv_create_cq(cqe=256) failed: Connection timed out
[1739930341.337918] [ohm:709640:0]        ib_iface.c:1059 UCX  ERROR ibv_create_cq(cqe=256) failed: Connection timed out
[1739930341.341945] [ohm:709530:0]        ib_iface.c:1059 UCX  ERROR ibv_create_cq(cqe=256) failed: Connection timed out
[1739930341.342996] [ohm:709541:0]        ib_iface.c:1059 UCX  ERROR ibv_create_cq(cqe=256) failed: Connection timed out
[1739930341.346493] [ohm:709528:0]        ib_iface.c:1059 UCX  ERROR ibv_create_cq(cqe=256) failed: Connection timed out
[1739930341.346560] [ohm:709574:0]        ib_iface.c:1059 UCX  ERROR ibv_create_cq(cqe=256) failed: Connection timed out
[1739930341.348202] [ohm:709600:0]        ib_iface.c:1059 UCX  ERROR ibv_create_cq(cqe=256) failed: Connection timed out
[1739930341.348856] [ohm:709564:0]        ib_iface.c:1059 UCX  ERROR ibv_create_cq(cqe=256) failed: Connection timed out
[1739930341.351333] [ohm:709561:0]        ib_iface.c:1059 UCX  ERROR ibv_create_cq(cqe=256) failed: Connection timed out
[1739930341.360722] [ohm:709534:0]        ib_iface.c:1059 UCX  ERROR ibv_create_cq(cqe=256) failed: Connection timed out
[1739930341.376914] [ohm:709517:0]        ib_iface.c:1059 UCX  ERROR ibv_create_cq(cqe=256) failed: Connection timed out
[1739930341.393200] [ohm:709597:0]        ib_iface.c:1059 UCX  ERROR ibv_create_cq(cqe=256) failed: Connection timed out
[1739930341.398780] [ohm:709529:0]        ib_iface.c:1059 UCX  ERROR ibv_create_cq(cqe=256) failed: Connection timed out
[1739930341.399637] [ohm:709522:0]        ib_iface.c:1059 UCX  ERROR ibv_create_cq(cqe=256) failed: Connection timed out
[1739930341.403870] [ohm:709508:0]        ib_iface.c:1059 UCX  ERROR ibv_create_cq(cqe=256) failed: Connection timed out
[1739930341.408581] [ohm:709646:0]        ib_iface.c:1059 UCX  ERROR ibv_create_cq(cqe=256) failed: Connection timed out
[1739930341.416707] [ohm:709515:0]        ib_iface.c:1059 UCX  ERROR ibv_create_cq(cqe=256) failed: Connection timed out
[1739930341.418428] [ohm:709612:0]        ib_iface.c:1059 UCX  ERROR ibv_create_cq(cqe=256) failed: Connection timed out
[1739930341.422696] [ohm:709603:0]        ib_iface.c:1059 UCX  ERROR ibv_create_cq(cqe=256) failed: Connection timed out
[1739930341.422674] [ohm:709516:0]        ib_iface.c:1059 UCX  ERROR ibv_create_cq(cqe=256) failed: Connection timed out
[1739930341.448884] [ohm:709595:0]        ib_iface.c:1059 UCX  ERROR ibv_create_cq(cqe=256) failed: Connection timed out
[1739930341.449584] [ohm:709520:0]        ib_iface.c:1059 UCX  ERROR ibv_create_cq(cqe=256) failed: Connection timed out
[1739930341.450646] [ohm:709531:0]        ib_iface.c:1059 UCX  ERROR ibv_create_cq(cqe=256) failed: Connection timed out
[1739930341.457044] [ohm:709622:0]        ib_iface.c:1059 UCX  ERROR ibv_create_cq(cqe=256) failed: Connection timed out
[1739930341.459207] [ohm:709634:0]        ib_iface.c:1059 UCX  ERROR ibv_create_cq(cqe=256) failed: Connection timed out
[1739930341.459472] [ohm:709521:0]        ib_iface.c:1059 UCX  ERROR ibv_create_cq(cqe=256) failed: Connection timed out
[1739930341.460388] [ohm:709592:0]        ib_iface.c:1059 UCX  ERROR ibv_create_cq(cqe=256) failed: Connection timed out
[1739930341.466264] [ohm:709593:0]        ib_iface.c:1059 UCX  ERROR ibv_create_cq(cqe=256) failed: Connection timed out
[1739930341.472974] [ohm:709552:0]        ib_iface.c:1059 UCX  ERROR ibv_create_cq(cqe=256) failed: Connection timed out
[1739930341.473272] [ohm:709614:0]        ib_iface.c:1059 UCX  ERROR ibv_create_cq(cqe=256) failed: Connection timed out
[1739930341.474249] [ohm:709509:0]        ib_iface.c:1059 UCX  ERROR ibv_create_cq(cqe=256) failed: Connection timed out
[1739930341.476584] [ohm:709624:0]        ib_iface.c:1059 UCX  ERROR ibv_create_cq(cqe=256) failed: Connection timed out
[1739930341.476856] [ohm:709635:0]        ib_iface.c:1059 UCX  ERROR ibv_create_cq(cqe=256) failed: Connection timed out
[1739930341.477163] [ohm:709641:0]        ib_iface.c:1059 UCX  ERROR ibv_create_cq(cqe=256) failed: Connection timed out
[1739930341.479217] [ohm:709519:0]        ib_iface.c:1059 UCX  ERROR ibv_create_cq(cqe=256) failed: Connection timed out
[1739930341.481493] [ohm:709512:0]        ib_iface.c:1059 UCX  ERROR ibv_create_cq(cqe=256) failed: Connection timed out
[1739930341.481612] [ohm:709533:0]        ib_iface.c:1059 UCX  ERROR ibv_create_cq(cqe=256) failed: Connection timed out
[1739930341.482494] [ohm:709607:0]        ib_iface.c:1059 UCX  ERROR ibv_create_cq(cqe=256) failed: Connection timed out
[1739930341.483425] [ohm:709532:0]        ib_iface.c:1059 UCX  ERROR ibv_create_cq(cqe=256) failed: Connection timed out
[1739930341.484428] [ohm:709511:0]        ib_iface.c:1059 UCX  ERROR ibv_create_cq(cqe=256) failed: Connection timed out
[1739930341.484714] [ohm:709514:0]        ib_iface.c:1059 UCX  ERROR ibv_create_cq(cqe=256) failed: Connection timed out
[1739930341.485505] [ohm:709644:0]        ib_iface.c:1059 UCX  ERROR ibv_create_cq(cqe=256) failed: Connection timed out

--------------------------------
SUGGESTED CITATIONS FOR THIS RUN
--------------------------------

Below you find a list of papers that are relevant to this ORCA run
We neither can nor want to force you to cite these papers, but we appreciate if you do
You receive ORCA, which is the product of decades of hard work by many enthusiastic individuals, for free
The only thing we kindly ask in return is that you cite our papers,
We deeply appreciate it, if you show your appreciation for ORCA by not just citing the generic ORCA reference.

Please note that relegating all ORCA citations to the supporting information does *not* help us.
SI sections are not indexed - citations you put there will not count into any citation statistics
But we need these citations in order to attract the funding resources that allow us to do what we are doing

Therefore, if you are a happy ORCA user, please consider citing a few of the papers listed below in the main body of your paper

In addition to the list printed below, the program has created the file orca.bibtex that contains the list in bibtex format
You can import this file easily into all common literature databanks and citation aid programs


List of essential papers. We consider these as the minimum necessary citations

  1. Neese,F.
     Software update: the ORCA program system, version 5.0
     WIRES Comput. Molec. Sci., 2022 12(1)e1606
     doi.org/10.1002/wcms.1606

List of papers to cite with high priority. The work reported in these papers was absolutely
necessary for this run to complete.
Our perspective: the developers of density functionals and basis sets usually get cited in chemistry papers
Good! But without the algorithms to do something with them, the functionals or basis sets would not do anything.
Hence, in our opinion, the algorithm design and method developments papers are equally worthy of getting cited

  1. Neese,F.; Olbrich,G.
     Efficient use of the resolution of the identity approximation in time-dependent density functional calculations with hybrid density functionals
     Chem. Phys. Lett., 2002 362 170-178
     doi.org/10.1016/s0009-2614(02)01053-9
  2. Neese,F.
     An improvement of the resolution of the identity approximation for the formation of the Coulomb matrix
     J. Comp. Chem., 2003 24(14)1740-1747
     doi.org/10.1002/jcc.10318
  3. Neese,F.; Wennmohs,F.; Hansen,A.; Becker,U.
     Efficient, approximate and parallel Hartree-Fock and hybrid DFT calculations. A 'chain-of-spheres' algorithm for the Hartree-Fock exchange
     Chem. Phys., 2009 356(1-3)98-109
     doi.org/10.1016/j.chemphys.2008.10.036
  4. Petrenko,T.; Kossmann,S.; Neese,F.
     Efficient time-dependent density functional theory approximations for hybrid density functionals: Analytical gradients and parallelization
     J. Chem. Phys., 2011 134 054116
     doi.org/10.1063/1.3533441
  5. Helmich-Paris,B.; de Souza,B.; Neese,F.; Izsák,R.
     An improved chain of spheres for exchange algorithm
     J. Chem. Phys., 2021 155 104109
     doi.org/doi: 10.1063/5.0058766.
  6. Neese,F.
     The SHARK Integral Generation and Digestion System
     J. Comp. Chem., 2022  1-16
     doi.org/10.1002/jcc.26942
  7. Lehtola,S.; Steigemann,C.; Oliveira,M.; Marques,M.
     Recent developments in Libxc - A comprehensive library of functionals for density functional theory
     Software X, 2018 7 
     doi.org/10.1016/j.softx.2017.11.002
  8. Grimme,S.; Antony,J.; Ehrlich,S.; Krieg,H.
     A consistent and accurate ab initio parametrization of density functional dispersion correction (DFT-D) for the 94 elements H-Pu
     J. Chem. Phys., 2010 132 154104-XXXX
     doi.org/10.1063/1.3382344
  9. Grimme,S.; Ehrlich,S.; Goerigk,L.
     Effect of the damping function in dispersion corrected density functional theory
     J. Comput. Chem., 2011 32(7)1456-1465
     doi.org/10.1002/jcc.21759

List of suggested additional citations. These are papers that are important in the 'surrounding' of 
of this run, or papers that preceded the highly important papers. If you like your results we are grateful for a citation.

  1. Izsak,R.; Neese,F.
     An overlap fitted chain of spheres exchange method
     J. Chem. Phys., 2011 135 144105
     doi.org/10.1063/1.3646921
  2. Izsak,R.; Hansen,A.; Neese,F.
     The resolution of identity and chain of spheres approximations for the LPNO-CCSD singles Fock term
     Molec. Phys., 2012 110 2413-2417
     doi.org/10.1080/00268976.2012.687466
  3. Neese,F.
     The ORCA program system
     WIRES Comput. Molec. Sci., 2012 2(1)73-78
     doi.org/10.1002/wcms.81
  4. Izsak,R.; Neese,F.; Klopper,W.
     Robust fitting techniques in the chain of spheres approximation to the Fock exchange: The role of the complementary space
     J. Chem. Phys., 2013 139 
     doi.org/10.1063/1.4819264
  5. Neese,F.
     Software update: the ORCA program system, version 4.0
     WIRES Comput. Molec. Sci., 2018 8(1)1-6
     doi.org/10.1002/wcms.1327
  6. Neese,F.; Wennmohs,F.; Becker,U.; Riplinger,C.
     The ORCA quantum chemistry program package
     J. Chem. Phys., 2020 152 Art. No. L224108
     doi.org/10.1063/5.0004608

List of optional additional citations

  1. Neese,F.
     Approximate second-order SCF convergence for spin unrestricted wavefunctions
     Chem. Phys. Lett., 2000 325(1-3)93-98
     doi.org/10.1016/s0009-2614(00)00662-x

Timings for individual modules:

Sum of individual times          ...      264.119 sec (=   4.402 min)
Startup calculation              ...        6.305 sec (=   0.105 min)   2.4 %
SCF iterations                   ...      126.468 sec (=   2.108 min)  47.9 %
Property integrals               ...        4.190 sec (=   0.070 min)   1.6 %
Property calculations            ...        2.941 sec (=   0.049 min)   1.1 %
CIS module                       ...      124.214 sec (=   2.070 min)  47.0 %
                             ****ORCA TERMINATED NORMALLY****
TOTAL RUN TIME: 0 days 0 hours 4 minutes 26 seconds 346 msec
