
                                 *****************
                                 * O   R   C   A *
                                 *****************

                                            #,                                       
                                            ###                                      
                                            ####                                     
                                            #####                                    
                                            ######                                   
                                           ########,                                 
                                     ,,################,,,,,                         
                               ,,#################################,,                 
                          ,,##########################################,,             
                       ,#########################################, ''#####,          
                    ,#############################################,,   '####,        
                  ,##################################################,,,,####,       
                ,###########''''           ''''###############################       
              ,#####''   ,,,,##########,,,,          '''####'''          '####       
            ,##' ,,,,###########################,,,                        '##       
           ' ,,###''''                  '''############,,,                           
         ,,##''                                '''############,,,,        ,,,,,,###''
      ,#''                                            '''#######################'''  
     '                                                          ''''####''''         
             ,#######,   #######,   ,#######,      ##                                
            ,#'     '#,  ##    ##  ,#'     '#,    #''#        ,####,   ,####,        
            ##       ##  ##   ,#'  ##            #'  '#       #'       #'  '#        
            ##       ##  #######   ##           ,######,      #####,   #    #        
            '#,     ,#'  ##    ##  '#,     ,#' ,#      #,     #,   #   #,  ,#        
             '#######'   ##     ##  '#######'  #'      '#     '####' # '####'        



                #########################################################
                #                        -***-                          #
                #          Department of theory and spectroscopy        #
                #                                                       #
                #                      Frank Neese                      #
                #                                                       #
                #     Directorship, Architecture, Infrastructure        #
                #                    SHARK, DRIVERS                     #
                #        Core code/Algorithms in most modules           #
                #                                                       #
                #        Max Planck Institute fuer Kohlenforschung      #
                #                Kaiser Wilhelm Platz 1                 #
                #                 D-45470 Muelheim/Ruhr                 #
                #                      Germany                          #
                #                                                       #
                #                  All rights reserved                  #
                #                        -***-                          #
                #########################################################


                         Program Version 6.0.0  -   RELEASE  -


 With contributions from (in alphabetic order):
   Daniel Aravena         : Magnetic Suceptibility
   Michael Atanasov       : Ab Initio Ligand Field Theory (pilot matlab implementation)
   Alexander A. Auer      : GIAO ZORA, VPT2 properties, NMR spectrum
   Ute Becker             : All parallelization in ORCA, NUMFREQ, NUMCALC
   Giovanni Bistoni       : ED, misc. LED, open-shell LED, HFLD
   Martin Brehm           : Molecular dynamics
   Dmytro Bykov           : pre 5.0 version of the SCF Hessian
   Marcos Casanova-Páez   : Triplet and SCS-CIS(D). UHF-(DLPNO)-IP/EA/STEOM-CCSD. UHF-CVS-IP/STEOM-CCSD
   Vijay G. Chilkuri      : MRCI spin determinant printing, contributions to CSF-ICE
   Pauline Colinet        : FMM embedding
   Dipayan Datta          : RHF DLPNO-CCSD density
   Achintya Kumar Dutta   : EOM-CC, STEOM-CC
   Nicolas Foglia         : Exact transition moments, OPA infrastructure, MCD improvements
   Dmitry Ganyushin       : Spin-Orbit,Spin-Spin,Magnetic field MRCI
   Miquel Garcia          : C-PCM and meta-GGA Hessian, CCSD/C-PCM, Gaussian charge scheme
   Tiago L. C. Gouveia    : GS-ROHF, GS-ROCIS
   Yang Guo               : DLPNO-NEVPT2, F12-NEVPT2, CIM, IAO-localization
   Andreas Hansen         : Spin unrestricted coupled pair/coupled cluster methods
   Ingolf Harden          : AUTO-CI MPn and infrastructure 
   Benjamin Helmich-Paris : MC-RPA, TRAH-(SCF,CASSCF), AVAS, COSX integrals, SCF dyn. polar.
   Lee Huntington         : MR-EOM, pCC
   Robert Izsak           : Overlap fitted RIJCOSX, COSX-SCS-MP3, EOM
   Riya Kayal             : Wick's Theorem for AUTO-CI, AUTO-CI UHF-CCSDT
   Emily Kempfer          : AUTO-CI, RHF CISDT and CCSDT
   Christian Kollmar      : KDIIS, OOCD, Brueckner-CCSD(T), CCSD density, CASPT2, CASPT2-K, improved NEVPT2
   Axel Koslowski         : Symmetry handling
   Simone Kossmann        : Meta GGA functionals, TD-DFT gradient, OOMP2, (MP2 Hessian; deprecated post 5.0)
   Lucas Lang             : DCDCAS
   Marvin Lechner         : AUTO-CI (C++ implementation), FIC-MRCC
   Spencer Leger          : CASSCF response
   Dagmar Lenk            : GEPOL surface, SMD, ORCA-2-JSON
   Dimitrios Liakos       : Extrapolation schemes; Compound Job, initial MDCI parallelization
   Dimitrios Manganas     : Further ROCIS development; embedding schemes. LFT, Crystal Embedding
   Dimitrios Pantazis     : SARC Basis sets
   Anastasios Papadopoulos: AUTO-CI, single reference methods and gradients
   Taras Petrenko         : pre 6.0 DFT Hessian and TD-DFT gradient, (ASA, deprecated), ECA, 1-Electron XAS/XES, NRVS
   Peter Pinski           : DLPNO-MP2, DLPNO-MP2 Gradient
   Christoph Reimann      : Effective Core Potentials
   Marius Retegan         : Local ZFS, SOC
   Christoph Riplinger    : Optimizer, TS searches, QM/MM, DLPNO-CCSD(T), (RO)-DLPNO pert. Triples
   Michael Roemelt        : Original ROCIS implementation
   Masaaki Saitow         : Open-shell DLPNO-CCSD energy and density
   Barbara Sandhoefer     : DKH picture change effects
   Kantharuban Sivalingam : CASSCF convergence/infrastructure, NEVPT2 and variants, FIC-MRCI
   Bernardo de Souza      : ESD, SOC TD-DFT
   Georgi Stoychev        : AutoAux, RI-MP2 NMR, DLPNO-MP2 response, X2C
   Van Anh Tran           : RI-MP2 g-tensors
   Willem Van den Heuvel  : Paramagnetic NMR
   Zikuan Wang            : NOTCH, Electric field optimization 
   Frank Wennmohs         : Technical directorship and infrastructure
   Hang Xu                : AUTO-CI-Response properties 


 We gratefully acknowledge several colleagues who have allowed us to
 interface, adapt or use parts of their codes:
   Stefan Grimme, W. Hujo, H. Kruse, P. Pracht,  : VdW corrections, initial TS optimization,
                  C. Bannwarth, S. Ehlert,         DFT functionals, gCP, sTDA/sTD-DF
                  L. Wittmann, M. Mueller
   Ed Valeev, F. Pavosevic, A. Kumar             : LibInt (2-el integral package), F12 methods
   Garnet Chan, S. Sharma, J. Yang, R. Olivares  : DMRG
   Ulf Ekstrom                                   : XCFun DFT Library
   Mihaly Kallay                                 : mrcc  (arbitrary order and MRCC methods)
   Frank Weinhold                                : gennbo (NPA and NBO analysis)
   Simon Mueller                                 : openCOSMO-RS
   Christopher J. Cramer and Donald G. Truhlar   : smd solvation model
   Lars Goerigk                                  : TD-DFT with DH, B97 family of functionals
   V. Asgeirsson, H. Jonsson                     : NEB implementation
   FAccTs GmbH                                   : IRC, NEB, NEB-TS, DLPNO-Multilevel, CI-OPT
                                                   MM, QMMM, 2- and 3-layer-ONIOM, Crystal-QMMM,
                                                   LR-CPCM, SF, NACMEs, symmetry and pop. for TD-DFT,
                                                   nearIR, NL-DFT gradient (VV10), updates on ESD,
                                                   ML-optimized integration grids, MBIS, APM,
                                                   GOAT, DOCKER, SOLVATOR, interface openCOSMO-RS
   S Lehtola, MJT Oliveira, MAL Marques          : LibXC Library
   Liviu Ungur et al                             : ANISO software


 Your calculation uses the libint2 library for the computation of 2-el integrals
 For citations please refer to: http://libint.valeyev.net

 Your ORCA version has been built with support for libXC version: 6.2.2
 For citations please refer to: https://libxc.gitlab.io

 This ORCA versions uses:
   CBLAS   interface :  Fast vector & matrix operations
   LAPACKE interface :  Fast linear algebra routines
   SCALAPACK package :  Parallel linear algebra routines
   Shared memory     :  Shared parallel matrices
   BLAS/LAPACK       :  OpenBLAS 0.3.27  USE64BITINT DYNAMIC_ARCH NO_AFFINITY Zen SINGLE_THREADED
        Core in use  :  Zen
   Copyright (c) 2011-2014, The OpenBLAS Project


Your calculation utilizes the atom-pairwise dispersion correction
with the Becke-Johnson damping scheme (D3BJ)


Warning: RI is on but no J-basis has been assigned. Assigning Def2/J (nothing to worry about!)
================================================================================

----- Orbital basis set information -----
Your calculation utilizes the basis: def2-TZVPPD
   F. Weigend and R. Ahlrichs, Phys. Chem. Chem. Phys. 7, 3297 (2005).
   D. Rappoport and F. Furche, J. Chem. Phys. 133, 134105 (2010)
   D. Rappoport, J. Chem. Phys. 155, 124102 (2021).

----- AuxJ basis set information -----
Your calculation utilizes the auxiliary basis: def2/J
   F. Weigend, Phys. Chem. Chem. Phys. 8, 1057 (2006).

================================================================================
                                        WARNINGS
                       Please study these warnings very carefully!
================================================================================

Using LibXC functional ID 531 : wB97M-V exchange-correlation functional
[ 1]  N. Mardirossian and M. Head-Gordon.,  J. Chem. Phys. 144, 214110 (2016)
Using LibXC functional ID 531 : wB97M-V exchange-correlation functional
[ 1]  N. Mardirossian and M. Head-Gordon.,  J. Chem. Phys. 144, 214110 (2016)

WARNING: B97M-V or wB97M-V functional requested.
  ===> : libXC variant has now been activated.
         Any manually given DFX/HFX/RangeSep scaling parameters are IGNORED!

Your calculation utilizes LibXC
 by S Lehtola, C Steigemann, MJT Oliveira & MAL Marques
Please cite in your paper:
 S Lehtola, C Steigemann, MJT Oliveira & MAL Marques, SoftwareX, 7, (2018), 1.
   

INFO   : Checking CIS options ...

WARNING: CIS/ROCIS methods need fully converged wavefunctions
  ===> : Setting SCFConvForced true
         You can overwrite this default with %scf ConvForced false 


================================================================================
                                       INPUT FILE
================================================================================
NAME = orca.inp
|  1> ! ENGRAD wB97M-D3BJ def2-TZVPPD 
|  2> %pal nprocs 8 end%pal nprocs 16 end 
|  3> %tddft nroots 4 Iroot 1 end 
|  4> *xyz 0 1 
|  5> O   0.48429078077469 0.96214922920508 -0.00031382625198
|  6> C   0.7451317945828 -0.35453674556207 -3.204591442e-05
|  7> C   -0.66015545147635 -0.5686492311492 0.00010881546297
|  8> H   1.27062938734209 -0.72265228869112 0.88917423025784
|  9> H   1.27032152177068 -0.7231071212168 -0.88924001104351
| 10> H   -1.21060412816829 -0.55025334769093 -0.92698676250771
| 11> H   -1.21044837869534 -0.54996260919635 0.92728959999681
| 12> *
| 13> 
| 14>                          ****END OF INPUT****
================================================================================

                     *******************************
                     * Energy+Gradient Calculation *
                     *******************************

---------------------------------
CARTESIAN COORDINATES (ANGSTROEM)
---------------------------------
  O      0.484291    0.962149   -0.000314
  C      0.745132   -0.354537   -0.000032
  C     -0.660155   -0.568649    0.000109
  H      1.270629   -0.722652    0.889174
  H      1.270322   -0.723107   -0.889240
  H     -1.210604   -0.550253   -0.926987
  H     -1.210448   -0.549963    0.927290

----------------------------
CARTESIAN COORDINATES (A.U.)
----------------------------
  NO LB      ZA    FRAG     MASS         X           Y           Z
   0 O     8.0000    0    15.999    0.915177    1.818199   -0.000593
   1 C     6.0000    0    12.011    1.408095   -0.669977   -0.000061
   2 C     6.0000    0    12.011   -1.247513   -1.074591    0.000206
   3 H     1.0000    0     1.008    2.401142   -1.365615    1.680296
   4 H     1.0000    0     1.008    2.400560   -1.366474   -1.680420
   5 H     1.0000    0     1.008   -2.287710   -1.039828   -1.751751
   6 H     1.0000    0     1.008   -2.287416   -1.039279    1.752323

--------------------------------
INTERNAL COORDINATES (ANGSTROEM)
--------------------------------
 O      0   0   0     0.000000000000     0.00000000     0.00000000
 C      1   0   0     1.342274215663     0.00000000     0.00000000
 C      2   1   0     1.421504984255    87.45762926     0.00000000
 H      2   1   3     1.096514739834   114.99978460   243.47260594
 H      2   1   3     1.096521398151   115.00037169   116.51463740
 H      3   2   1     1.078349834188   120.13083138    83.76474149
 H      3   2   1     1.078348599849   120.13000823   276.22694215

---------------------------
INTERNAL COORDINATES (A.U.)
---------------------------
 O      0   0   0     0.000000000000     0.00000000     0.00000000
 C      1   0   0     2.536530664227     0.00000000     0.00000000
 C      2   1   0     2.686255118247    87.45762926     0.00000000
 H      2   1   3     2.072112560094   114.99978460   243.47260594
 H      2   1   3     2.072125142490   115.00037169   116.51463740
 H      3   2   1     2.037785863174   120.13083138    83.76474149
 H      3   2   1     2.037783530612   120.13000823   276.22694215

---------------------
BASIS SET INFORMATION
---------------------
There are 3 groups of distinct atoms

 Group   1 Type O   : 12s7p3d1f contracted to 6s4p3d1f pattern {621111/4111/111/1}
 Group   2 Type C   : 12s6p3d1f contracted to 6s3p3d1f pattern {621111/411/111/1}
 Group   3 Type H   : 5s3p1d contracted to 3s3p1d pattern {311/111/1}

Atom   0O    basis set group =>   1
Atom   1C    basis set group =>   2
Atom   2C    basis set group =>   2
Atom   3H    basis set group =>   3
Atom   4H    basis set group =>   3
Atom   5H    basis set group =>   3
Atom   6H    basis set group =>   3
---------------------------------
AUXILIARY/J BASIS SET INFORMATION
---------------------------------
There are 3 groups of distinct atoms

 Group   1 Type O   : 12s5p4d2f1g contracted to 6s4p3d1f1g pattern {711111/2111/211/2/1}
 Group   2 Type C   : 12s5p4d2f1g contracted to 6s4p3d1f1g pattern {711111/2111/211/2/1}
 Group   3 Type H   : 5s2p1d contracted to 3s1p1d pattern {311/2/1}

Atom   0O    basis set group =>   1
Atom   1C    basis set group =>   2
Atom   2C    basis set group =>   2
Atom   3H    basis set group =>   3
Atom   4H    basis set group =>   3
Atom   5H    basis set group =>   3
Atom   6H    basis set group =>   3
[1741191343.585383] [ohm:198729:0]        ib_iface.c:1059 UCX  ERROR ibv_create_cq(cqe=256) failed: Connection timed out
[1741191343.585374] [ohm:198733:0]        ib_iface.c:1059 UCX  ERROR ibv_create_cq(cqe=256) failed: Connection timed out
[1741191343.597230] [ohm:198731:0]        ib_iface.c:1059 UCX  ERROR ibv_create_cq(cqe=256) failed: Connection timed out
[1741191343.601710] [ohm:198735:0]        ib_iface.c:1059 UCX  ERROR ibv_create_cq(cqe=256) failed: Connection timed out
[1741191343.628111] [ohm:198740:0]        ib_iface.c:1059 UCX  ERROR ibv_create_cq(cqe=256) failed: Connection timed out
[1741191343.629198] [ohm:198737:0]        ib_iface.c:1059 UCX  ERROR ibv_create_cq(cqe=256) failed: Connection timed out
[1741191343.629197] [ohm:198750:0]        ib_iface.c:1059 UCX  ERROR ibv_create_cq(cqe=256) failed: Connection timed out
[1741191343.629196] [ohm:198753:0]        ib_iface.c:1059 UCX  ERROR ibv_create_cq(cqe=256) failed: Connection timed out
[1741191343.646194] [ohm:198739:0]        ib_iface.c:1059 UCX  ERROR ibv_create_cq(cqe=256) failed: Connection timed out
[1741191343.651444] [ohm:198732:0]        ib_iface.c:1059 UCX  ERROR ibv_create_cq(cqe=256) failed: Connection timed out
[1741191343.661424] [ohm:198730:0]        ib_iface.c:1059 UCX  ERROR ibv_create_cq(cqe=256) failed: Connection timed out
[1741191343.712931] [ohm:198744:0]        ib_iface.c:1059 UCX  ERROR ibv_create_cq(cqe=256) failed: Connection timed out
[1741191343.714565] [ohm:198736:0]        ib_iface.c:1059 UCX  ERROR ibv_create_cq(cqe=256) failed: Connection timed out
[1741191343.721461] [ohm:198734:0]        ib_iface.c:1059 UCX  ERROR ibv_create_cq(cqe=256) failed: Connection timed out
[1741191343.767390] [ohm:198751:0]        ib_iface.c:1059 UCX  ERROR ibv_create_cq(cqe=256) failed: Connection timed out
[1741191343.767390] [ohm:198754:0]        ib_iface.c:1059 UCX  ERROR ibv_create_cq(cqe=256) failed: Connection timed out


           ************************************************************
           *        Program running with 16 parallel MPI-processes    *
           *              working on a common directory               *
           ************************************************************
------------------------------------------------------------------------------
                             ORCA STARTUP CALCULATIONS
                           -- RI-GTO INTEGRALS CHOSEN --
------------------------------------------------------------------------------
------------------------------------------------------------------------------
                   ___                                                        
                  /   \      - P O W E R E D   B Y -                         
                 /     \                                                     
                 |  |  |   _    _      __       _____    __    __             
                 |  |  |  | |  | |    /  \     |  _  \  |  |  /  |          
                  \  \/   | |  | |   /    \    | | | |  |  | /  /          
                 / \  \   | |__| |  /  /\  \   | |_| |  |  |/  /          
                |  |  |   |  __  | /  /__\  \  |    /   |      \           
                |  |  |   | |  | | |   __   |  |    \   |  |\   \          
                \     /   | |  | | |  |  |  |  | |\  \  |  | \   \       
                 \___/    |_|  |_| |__|  |__|  |_| \__\ |__|  \__/        
                                                                              
                      - O R C A' S   B I G   F R I E N D -                    
                                      &                                       
                       - I N T E G R A L  F E E D E R -                       
                                                                              
 v1 FN, 2020, v2 2021, v3 2022-2024                                           
------------------------------------------------------------------------------


----------------------
SHARK INTEGRAL PACKAGE
----------------------

Number of atoms                             ...      7
Number of basis functions                   ...    182
Number of shells                            ...     68
Maximum angular momentum                    ...      3
Integral batch strategy                     ... SHARK/LIBINT Hybrid
RI-J (if used) integral strategy            ... SPLIT-RIJ (Revised 2003 algorithm where possible)
Printlevel                                  ...      1
Contraction scheme used                     ... SEGMENTED contraction
Prescreening option                         ... SCHWARTZ
   Thresh                                   ... 2.500e-11
   Tcut                                     ... 2.500e-12
   Tpresel                                  ... 2.500e-12 
Coulomb Range Separation                    ... NOT USED
Exchange Range Separation                   ... Long Range
   Mu parameter                             ... 3.000e-01
   Scaling (regular/separated)              ... 1.500e-01 8.500e-01
Multipole approximations                    ... NOT USED
Finite Nucleus Model                        ... NOT USED
CABS basis                                  ... NOT available
Auxiliary Coulomb fitting basis             ... AVAILABLE
   # of basis functions in Aux-J            ...    191
   # of shells in Aux-J                     ...     65
   Maximum angular momentum in Aux-J        ...      4
Auxiliary J/K fitting basis                 ... NOT available
Auxiliary Correlation fitting basis         ... NOT available
Auxiliary 'external' fitting basis          ... NOT available

Checking pre-screening integrals            ... done (  0.0 sec) Dimension = 68
Check shell pair data                       ... done (  0.0 sec)
Shell pair information
Shell pair cut-off parameter TPreSel        ...   2.5e-12
Total number of shell pairs                 ...      2346
Shell pairs after pre-screening             ...      2339
Total number of primitive shell pairs       ...      5434
Primitive shell pairs kept                  ...      4894
          la=0 lb=0:    460 shell pairs
          la=1 lb=0:    658 shell pairs
          la=1 lb=1:    253 shell pairs
          la=2 lb=0:    390 shell pairs
          la=2 lb=1:    286 shell pairs
          la=2 lb=2:     91 shell pairs
          la=3 lb=0:     90 shell pairs
          la=3 lb=1:     66 shell pairs
          la=3 lb=2:     39 shell pairs
          la=3 lb=3:      6 shell pairs

Calculating one electron integrals          ... done (  0.0 sec)
Calculating RI/J V-Matrix + Cholesky decomp.... done (  0.0 sec)
Calculating Nuclear repulsion               ... done (  0.0 sec) ENN=     72.107522235739 Eh

Diagonalization of the overlap matrix:
Smallest eigenvalue                        ... 1.244e-05
Time for diagonalization                   ...    0.005 sec
Threshold for overlap eigenvalues          ... 1.000e-07
Number of eigenvalues below threshold      ... 0
Time for construction of square roots      ...    0.027 sec
Total time needed                          ...    0.037 sec

-------------------
DFT GRID GENERATION
-------------------

General Integration Accuracy     IntAcc      ... 4.388
Radial Grid Type                 RadialGrid  ... OptM3 with GC (2021)
Angular Grid (max. ang.)         AngularGrid ... 4 (Lebedev-302)
Angular grid pruning method      GridPruning ... 4 (adaptive)
Weight generation scheme         WeightScheme... mBecke (2022)
Basis function cutoff            BFCut       ... 1.0000e-11
Integration weight cutoff        WCut        ... 1.0000e-14
Partially contracted basis set               ... off
Rotationally invariant grid construction     ... off
Angular grids for H and He will be reduced by one unit
Diffuse basis detected: some atoms will have their outermost
                        angular grid increased by 1.

Total number of grid points                  ...    33077
Total number of batches                      ...      520
Average number of points per batch           ...       63
Average number of grid points per atom       ...     4725

--------------------
COSX GRID GENERATION
--------------------

GRIDX 1
-------
General Integration Accuracy     IntAcc      ... 3.816
Radial Grid Type                 RadialGrid  ... OptM3 with GC (2021)
Angular Grid (max. ang.)         AngularGrid ... 1 (Lebedev-50)
Angular grid pruning method      GridPruning ... 4 (adaptive)
Weight generation scheme         WeightScheme... mBecke (2022)
Basis function cutoff            BFCut       ... 1.0000e-11
Integration weight cutoff        WCut        ... 1.0000e-14
Partially contracted basis set               ... on
Rotationally invariant grid construction     ... off
Angular grids for H and He will be reduced by one unit
Diffuse basis detected: some atoms will have their outermost
                        angular grid increased by 1.

Total number of grid points                  ...     4163
Total number of batches                      ...       36
Average number of points per batch           ...      115
Average number of grid points per atom       ...      595
UseSFitting                                  ... on

GRIDX 2
-------
General Integration Accuracy     IntAcc      ... 4.020
Radial Grid Type                 RadialGrid  ... OptM3 with GC (2021)
Angular Grid (max. ang.)         AngularGrid ... 2 (Lebedev-110)
Angular grid pruning method      GridPruning ... 4 (adaptive)
Weight generation scheme         WeightScheme... mBecke (2022)
Basis function cutoff            BFCut       ... 1.0000e-11
Integration weight cutoff        WCut        ... 1.0000e-14
Partially contracted basis set               ... on
Rotationally invariant grid construction     ... off
Angular grids for H and He will be reduced by one unit
Diffuse basis detected: some atoms will have their outermost
                        angular grid increased by 1.

Total number of grid points                  ...    10230
Total number of batches                      ...       84
Average number of points per batch           ...      121
Average number of grid points per atom       ...     1461
UseSFitting                                  ... on

GRIDX 3
-------
General Integration Accuracy     IntAcc      ... 4.338
Radial Grid Type                 RadialGrid  ... OptM3 with GC (2021)
Angular Grid (max. ang.)         AngularGrid ... 3 (Lebedev-194)
Angular grid pruning method      GridPruning ... 4 (adaptive)
Weight generation scheme         WeightScheme... mBecke (2022)
Basis function cutoff            BFCut       ... 1.0000e-11
Integration weight cutoff        WCut        ... 1.0000e-14
Partially contracted basis set               ... on
Rotationally invariant grid construction     ... off
Angular grids for H and He will be reduced by one unit
Diffuse basis detected: some atoms will have their outermost
                        angular grid increased by 1.

Total number of grid points                  ...    23063
Total number of batches                      ...      184
Average number of points per batch           ...      125
Average number of grid points per atom       ...     3295
UseSFitting                                  ... on
Initializing property integral containers    ... done (  0.0 sec)

SHARK setup successfully completed in   0.8 seconds

Maximum memory used throughout the entire STARTUP-calculation: 13.8 MB
[1741191345.955238] [ohm:198818:0]        ib_iface.c:1059 UCX  ERROR ibv_create_cq(cqe=256) failed: Connection timed out
[1741191345.962070] [ohm:198816:0]        ib_iface.c:1059 UCX  ERROR ibv_create_cq(cqe=256) failed: Connection timed out
[1741191345.969923] [ohm:198836:0]        ib_iface.c:1059 UCX  ERROR ibv_create_cq(cqe=256) failed: Connection timed out
[1741191345.981939] [ohm:198821:0]        ib_iface.c:1059 UCX  ERROR ibv_create_cq(cqe=256) failed: Connection timed out
[1741191345.993962] [ohm:198814:0]        ib_iface.c:1059 UCX  ERROR ibv_create_cq(cqe=256) failed: Connection timed out
[1741191346.008847] [ohm:198825:0]        ib_iface.c:1059 UCX  ERROR ibv_create_cq(cqe=256) failed: Connection timed out
[1741191346.015675] [ohm:198830:0]        ib_iface.c:1059 UCX  ERROR ibv_create_cq(cqe=256) failed: Connection timed out
[1741191346.072485] [ohm:198844:0]        ib_iface.c:1059 UCX  ERROR ibv_create_cq(cqe=256) failed: Connection timed out
[1741191346.073245] [ohm:198813:0]        ib_iface.c:1059 UCX  ERROR ibv_create_cq(cqe=256) failed: Connection timed out
[1741191346.079312] [ohm:198817:0]        ib_iface.c:1059 UCX  ERROR ibv_create_cq(cqe=256) failed: Connection timed out
[1741191346.083197] [ohm:198819:0]        ib_iface.c:1059 UCX  ERROR ibv_create_cq(cqe=256) failed: Connection timed out
[1741191346.088317] [ohm:198823:0]        ib_iface.c:1059 UCX  ERROR ibv_create_cq(cqe=256) failed: Connection timed out
[1741191346.088422] [ohm:198826:0]        ib_iface.c:1059 UCX  ERROR ibv_create_cq(cqe=256) failed: Connection timed out
[1741191346.089475] [ohm:198815:0]        ib_iface.c:1059 UCX  ERROR ibv_create_cq(cqe=256) failed: Connection timed out
[1741191346.105767] [ohm:198839:0]        ib_iface.c:1059 UCX  ERROR ibv_create_cq(cqe=256) failed: Connection timed out
[1741191346.120677] [ohm:198833:0]        ib_iface.c:1059 UCX  ERROR ibv_create_cq(cqe=256) failed: Connection timed out


           ************************************************************
           *        Program running with 16 parallel MPI-processes    *
           *              working on a common directory               *
           ************************************************************
-------------------------------------------------------------------------------
                                 ORCA GUESS
                   Start orbitals & Density for SCF / CASSCF
-------------------------------------------------------------------------------

------------
SCF SETTINGS
------------
Hamiltonian:
 Density Functional     Method          .... DFT(GTOs)
  Functional kind                       .... Exchange-Correlation
  Functional name                       .... wB97M-V exchange-correlation functional
  Functional family                     .... Hybrid MGGA
  Functional refs                              
    [ 0] N. Mardirossian and M. Head-Gordon.,  J. Chem. Phys. 144, 214110 (2016), doi: 10.1063/1.4952647
  Fraction of HF Exchange (short range) .... 0.1500
  Fraction of HF Exchange (long range)  .... 1.0000
  Range separation parameter mu         .... 0.3000
  Functional external parameters        .... 17
    Parameter  0 _cx00      =  8.500000e-01 : u^00 coefficient for exchange
    Parameter  1 _cx01      =  1.007000e+00 : u^01 coefficient for exchange
    Parameter  2 _cx10      =  2.590000e-01 : u^10 coefficient for exchange
    Parameter  3 _css00     =  4.430000e-01 : u^00 coefficient for same-spin correlation
    Parameter  4 _css04     = -1.437000e+00 : u^04 coefficient for same-spin correlation
    Parameter  5 _css10     = -4.535000e+00 : u^10 coefficient for same-spin correlation
    Parameter  6 _css20     = -3.390000e+00 : u^20 coefficient for same-spin correlation
    Parameter  7 _css43     =  4.278000e+00 : u^43 coefficient for same-spin correlation
    Parameter  8 _cos00     =  1.000000e+00 : u^00 coefficient for opposite-spin correlation
    Parameter  9 _cos10     =  1.358000e+00 : u^10 coefficient for opposite-spin correlation
    Parameter 10 _cos20     =  2.924000e+00 : u^20 coefficient for opposite-spin correlation
    Parameter 11 _cos21     = -8.812000e+00 : u^21 coefficient for opposite-spin correlation
    Parameter 12 _cos60     = -1.390000e+00 : u^60 coefficient for opposite-spin correlation
    Parameter 13 _cos61     =  9.142000e+00 : u^61 coefficient for opposite-spin correlation
    Parameter 14 _alpha     =  1.000000e+00 : fraction of HF exchange
    Parameter 15 _beta      = -8.500000e-01 : fraction of short-range exchange
    Parameter 16 _omega     =  3.000000e-01 : range-separation constant
 Long-range corrected/Screened/Range-Separated Hybrid DFT is turned on
   Amount of maximum screened exact exchange              ....  0.850000
   Range separation parameter mu (erf(mu*r12)/r12)        ....  0.300000
 RI-approximation to the Coulomb term is turned on
   Number of AuxJ basis functions       .... 191
   RIJ-COSX (HFX calculated with COS-X)).... on


General Settings:
 Integral files         IntName         .... orca
 Hartree-Fock type      HFTyp           .... RHF
 Total Charge           Charge          ....    0
 Multiplicity           Mult            ....    1
 Number of Electrons    NEL             ....   24
 Basis Dimension        Dim             ....  182
 Nuclear Repulsion      ENuc            ....     72.1075222357 Eh

Convergence Acceleration:
 AO-DIIS                CNVDIIS         .... on
   Start iteration      DIISMaxIt       ....    12
   Startup error        DIISStart       ....  0.200000
   # of expansion vecs  DIISMaxEq       ....     5
   Bias factor          DIISBfac        ....   1.050
   Max. coefficient     DIISMaxC        ....  10.000
 MO-DIIS                CNVKDIIS        .... off
 Trust-Rad. Augm. Hess. CNVTRAH         .... auto
   Auto Start mean grad. ratio tolernc. ....  1.125000
   Auto Start start iteration           ....    50
   Auto Start num. interpolation iter.  ....    10
   Max. Number of Micro iterations      ....    24
   Max. Number of Macro iterations      .... Maxiter - #DIIS iter
   Number of Davidson start vectors     ....     2
   Converg. threshold    (grad. norm)   ....   1.000e-05
   Grad. Scal. Fac. for Micro threshold ....   0.100
   Minimum threshold for Micro iter.    ....   1.000e-02
   NR start threshold (gradient norm)   ....   1.000e-04
   Initial trust radius                 ....   0.400
   Minimum AH scaling param. (alpha)    ....   1.000
   Maximum AH scaling param. (alpha)    .... 1000.000
   Quad. conv. algorithm                .... NR
   White noise on init. David. guess    .... on
   Maximum white noise                  ....   0.010
   Pseudo random numbers                .... off
   Inactive MOs                         .... canonical
   Orbital update algorithm             .... Taylor
   Preconditioner                       .... Diag
   Full preconditioner red. dimension   ....   250
 SOSCF                  CNVSOSCF        .... on
   Start iteration      SOSCFMaxIt      ....   150
   Startup grad/error   SOSCFStart      ....  0.003300
   Hessian update       SOSCFHessUp     .... L-BFGS
 Level Shifting         CNVShift        .... on
   Level shift para.    LevelShift      ....    0.2500
   Turn off err/grad.   ShiftErr        ....    0.0010
 Zerner damping         CNVZerner       .... off
 Static damping         CNVDamp         .... on
   Fraction old density DampFac         ....    0.7000
   Max. Damping (<1)    DampMax         ....    0.9800
   Min. Damping (>=0)   DampMin         ....    0.0000
   Turn off err/grad.   DampErr         ....    0.1000

SCF Procedure:
 Maximum # iterations   MaxIter         ....   125
 SCF integral mode      SCFMode         .... Direct
   Integral package                     .... SHARK and LIBINT hybrid scheme
 Reset frequency        DirectResetFreq ....    20
 Integral Threshold     Thresh          ....  2.500e-11 Eh
 Primitive CutOff       TCut            ....  2.500e-12 Eh

Convergence Tolerance:
 Convergence Check Mode ConvCheckMode   .... Total+1el-Energy
 Convergence forced     ConvForced      .... 1
 Energy Change          TolE            ....  1.000e-08 Eh
 1-El. energy change                    ....  1.000e-05 Eh
 Orbital Gradient       TolG            ....  1.000e-05
 Orbital Rotation angle TolX            ....  1.000e-05
 DIIS Error             TolErr          ....  5.000e-07

------------------------------
INITIAL GUESS: MODEL POTENTIAL
------------------------------
Loading Hartree-Fock densities                     ... done
Calculating cut-offs                               ... done
Initializing the effective Hamiltonian             ... done
Setting up the integral package (SHARK)            ... done
Starting the Coulomb interaction                   ... done (   0.0 sec)
Making the grid                                    ... done (   0.1 sec)
Mapping shells                                     ... done
Starting the XC term evaluation                    ... done (   0.0 sec)
  promolecular density results
     # of electrons  =     23.998038538
     EX              =    -19.506041146
     EC              =     -0.774250403
     EX+EC           =    -20.280291549
Transforming the Hamiltonian                       ... done (   0.4 sec)
Diagonalizing the Hamiltonian                      ... done (   0.0 sec)
Back transforming the eigenvectors                 ... done (   0.0 sec)
Now organizing SCF variables                       ... done
                      ------------------
                      INITIAL GUESS DONE (   0.6 sec)
                      ------------------
             **** ENERGY FILE WAS UPDATED (orca.en.tmp) ****
Finished Guess after   1.4 sec
Maximum memory used throughout the entire GUESS-calculation: 9.7 MB
[1741191347.766695] [ohm:198897:0]        ib_iface.c:1059 UCX  ERROR ibv_create_cq(cqe=256) failed: Connection timed out
[1741191347.766685] [ohm:198899:0]        ib_iface.c:1059 UCX  ERROR ibv_create_cq(cqe=256) failed: Connection timed out
[1741191347.777056] [ohm:198896:0]        ib_iface.c:1059 UCX  ERROR ibv_create_cq(cqe=256) failed: Connection timed out
[1741191347.783911] [ohm:198903:0]        ib_iface.c:1059 UCX  ERROR ibv_create_cq(cqe=256) failed: Connection timed out
[1741191347.786135] [ohm:198901:0]        ib_iface.c:1059 UCX  ERROR ibv_create_cq(cqe=256) failed: Connection timed out
[1741191347.786749] [ohm:198898:0]        ib_iface.c:1059 UCX  ERROR ibv_create_cq(cqe=256) failed: Connection timed out
[1741191347.791671] [ohm:198900:0]        ib_iface.c:1059 UCX  ERROR ibv_create_cq(cqe=256) failed: Connection timed out
[1741191347.795867] [ohm:198905:0]        ib_iface.c:1059 UCX  ERROR ibv_create_cq(cqe=256) failed: Connection timed out
[1741191347.805737] [ohm:198907:0]        ib_iface.c:1059 UCX  ERROR ibv_create_cq(cqe=256) failed: Connection timed out
[1741191347.806965] [ohm:198908:0]        ib_iface.c:1059 UCX  ERROR ibv_create_cq(cqe=256) failed: Connection timed out
[1741191347.807171] [ohm:198911:0]        ib_iface.c:1059 UCX  ERROR ibv_create_cq(cqe=256) failed: Connection timed out
[1741191347.807728] [ohm:198902:0]        ib_iface.c:1059 UCX  ERROR ibv_create_cq(cqe=256) failed: Connection timed out
[1741191347.816006] [ohm:198916:0]        ib_iface.c:1059 UCX  ERROR ibv_create_cq(cqe=256) failed: Connection timed out
[1741191347.820159] [ohm:198919:0]        ib_iface.c:1059 UCX  ERROR ibv_create_cq(cqe=256) failed: Connection timed out
[1741191347.834937] [ohm:198926:0]        ib_iface.c:1059 UCX  ERROR ibv_create_cq(cqe=256) failed: Connection timed out
[1741191347.835630] [ohm:198921:0]        ib_iface.c:1059 UCX  ERROR ibv_create_cq(cqe=256) failed: Connection timed out


           ************************************************************
           *        Program running with 16 parallel MPI-processes    *
           *              working on a common directory               *
           ************************************************************

-------------------------------------------------------------------------------------------
                                      ORCA LEAN-SCF
                              memory conserving SCF solver
-------------------------------------------------------------------------------------------

----------------------------------------D-I-I-S--------------------------------------------
Iteration    Energy (Eh)           Delta-E    RMSDP     MaxDP     DIISErr   Damp  Time(sec)
-------------------------------------------------------------------------------------------
               ***  Starting incremental Fock matrix formation  ***
    1    -153.7193074717395689     0.00e+00  2.29e-03  7.58e-02  2.45e-01  0.700   1.9
    2    -153.7671696827965775    -4.79e-02  2.06e-03  8.29e-02  1.07e-01  0.700   0.4
                               ***Turning on AO-DIIS***
    3    -153.7863269552755696    -1.92e-02  1.51e-03  6.25e-02  4.39e-02  0.700   0.3
    4    -153.7985729709972134    -1.22e-02  3.82e-03  1.63e-01  2.68e-02  0.000   0.3
    5    -153.8264821425760829    -2.79e-02  3.04e-04  1.45e-02  6.04e-03  0.000   0.4
                              *** Initializing SOSCF ***
---------------------------------------S-O-S-C-F--------------------------------------
Iteration    Energy (Eh)           Delta-E    RMSDP     MaxDP     MaxGrad    Time(sec)
--------------------------------------------------------------------------------------
    6    -153.8266043485387513    -1.22e-04  1.26e-04  4.80e-03  2.63e-03     0.3
               *** Restarting incremental Fock matrix formation ***
    7    -153.8266516518665981    -4.73e-05  7.22e-05  1.49e-03  1.09e-03     0.4
    8    -153.8266694457250878    -1.78e-05  8.40e-05  2.12e-03  4.48e-04     0.3
    9    -153.8266736425929366    -4.20e-06  2.03e-05  6.05e-04  4.42e-04     0.3
   10    -153.8266749964103042    -1.35e-06  1.37e-05  3.38e-04  3.25e-04     0.3
   11    -153.8266756250646949    -6.29e-07  2.54e-06  5.45e-05  2.31e-05     0.3
   12    -153.8266756394034473    -1.43e-08  8.68e-07  2.75e-05  1.39e-05     0.3
   13    -153.8266756435064622    -4.10e-09  1.04e-06  5.30e-05  1.14e-06     0.3
                 **** Energy Check signals convergence ****

               *****************************************************
               *                     SUCCESS                       *
               *           SCF CONVERGED AFTER  13 CYCLES          *
               *****************************************************

Recomputing exchange energy using gridx3       ... done (    0.408 sec)
Old exchange energy                            :     -6.182146512 Eh
New exchange energy                            :     -6.182150711 Eh
Exchange energy change after final integration :     -0.000004200 Eh
Total energy after final integration           :   -153.826679843 Eh
             **** ENERGY FILE WAS UPDATED (orca.en.tmp) ****

----------------
TOTAL SCF ENERGY
----------------

Total Energy       :       -153.82667984306116 Eh           -4185.83676 eV

Components:
Nuclear Repulsion  :         72.10752223573915 Eh            1962.14543 eV
Electronic Energy  :       -225.93419787924563 Eh           -6147.98208 eV
One Electron Energy:       -350.80514812230899 Eh           -9545.89338 eV
Two Electron Energy:        124.87095024306336 Eh            3397.91130 eV

Virial components:
Potential Energy   :       -307.14630078437347 Eh           -8357.87575 eV
Kinetic Energy     :        153.31962094131231 Eh            4172.03899 eV
Virial Ratio       :          2.00330720163953

DFT components:
N(Alpha)           :       11.999991199304 electrons
N(Beta)            :       11.999991199304 electrons
N(Total)           :       23.999982398609 electrons
E(XC)              :      -14.726100658380 Eh       

---------------
SCF CONVERGENCE
---------------

  Last Energy change         ...    4.1030e-09  Tolerance :   1.0000e-08
  Last MAX-Density change    ...    5.2990e-05  Tolerance :   1.0000e-07
  Last RMS-Density change    ...    1.0373e-06  Tolerance :   5.0000e-09
  Last DIIS Error            ...    2.6347e-03  Tolerance :   5.0000e-07
  Last Orbital Gradient      ...    1.1374e-06  Tolerance :   1.0000e-05
  Last Orbital Rotation      ...    5.8766e-06  Tolerance :   1.0000e-05


----------------
ORBITAL ENERGIES
----------------

  NO   OCC          E(Eh)            E(eV) 
   0   2.0000     -19.338960      -526.2399 
   1   2.0000     -10.427853      -283.7563 
   2   2.0000     -10.396809      -282.9116 
   3   2.0000      -1.148673       -31.2570 
   4   2.0000      -0.863316       -23.4920 
   5   2.0000      -0.735530       -20.0148 
   6   2.0000      -0.625677       -17.0255 
   7   2.0000      -0.581264       -15.8170 
   8   2.0000      -0.513543       -13.9742 
   9   2.0000      -0.505849       -13.7649 
  10   2.0000      -0.389824       -10.6077 
  11   2.0000      -0.364948        -9.9307 
  12   0.0000      -0.008635        -0.2350 
  13   0.0000       0.040871         1.1121 
  14   0.0000       0.060763         1.6534 
  15   0.0000       0.076648         2.0857 
  16   0.0000       0.098546         2.6816 
  17   0.0000       0.119229         3.2444 
  18   0.0000       0.129074         3.5123 
  19   0.0000       0.129335         3.5194 
  20   0.0000       0.148293         4.0353 
  21   0.0000       0.162566         4.4236 
  22   0.0000       0.197453         5.3730 
*Only the first 10 virtual orbitals were printed.

                    ********************************
                    * MULLIKEN POPULATION ANALYSIS *
                    ********************************

-----------------------
MULLIKEN ATOMIC CHARGES
-----------------------
   0 O :   -0.476288
   1 C :   -0.082799
   2 C :   -0.307928
   3 H :    0.216314
   4 H :    0.216316
   5 H :    0.217202
   6 H :    0.217185
Sum of atomic charges:   -0.0000000

--------------------------------
MULLIKEN REDUCED ORBITAL CHARGES
--------------------------------
  0 O s       :     4.014457  s :     4.014457
      pz      :     1.882217  p :     4.449985
      px      :     1.395766
      py      :     1.172002
      dz2     :     0.003491  d :     0.010318
      dxz     :    -0.002243
      dyz     :    -0.001532
      dx2y2   :     0.005391
      dxy     :     0.005211
      f0      :     0.000175  f :     0.001528
      f+1     :     0.000082
      f-1     :     0.000352
      f+2     :     0.000163
      f-2     :     0.000045
      f+3     :     0.000402
      f-3     :     0.000310

  1 C s       :     3.225620  s :     3.225620
      pz      :     1.144804  p :     2.621462
      px      :     0.810767
      py      :     0.665890
      dz2     :    -0.000458  d :     0.223511
      dxz     :     0.028892
      dyz     :     0.131034
      dx2y2   :     0.020866
      dxy     :     0.043176
      f0      :     0.002194  f :     0.012207
      f+1     :     0.000738
      f-1     :     0.001161
      f+2     :     0.002914
      f-2     :     0.000599
      f+3     :     0.001293
      f-3     :     0.003309

  2 C s       :     3.434136  s :     3.434136
      pz      :     1.156945  p :     2.815267
      px      :     0.968694
      py      :     0.689627
      dz2     :     0.009309  d :     0.053260
      dxz     :     0.007056
      dyz     :     0.013364
      dx2y2   :     0.005549
      dxy     :     0.017982
      f0      :     0.000647  f :     0.005265
      f+1     :     0.000682
      f-1     :     0.000181
      f+2     :     0.000906
      f-2     :     0.000268
      f+3     :     0.001271
      f-3     :     0.001308

  3 H s       :     0.735614  s :     0.735614
      pz      :     0.027260  p :     0.045627
      px      :     0.009911
      py      :     0.008456
      dz2     :     0.000718  d :     0.002445
      dxz     :     0.000498
      dyz     :     0.000506
      dx2y2   :     0.000412
      dxy     :     0.000312

  4 H s       :     0.735607  s :     0.735607
      pz      :     0.027258  p :     0.045632
      px      :     0.009907
      py      :     0.008467
      dz2     :     0.000718  d :     0.002445
      dxz     :     0.000498
      dyz     :     0.000506
      dx2y2   :     0.000412
      dxy     :     0.000312

  5 H s       :     0.749091  s :     0.749091
      pz      :     0.013154  p :     0.031562
      px      :     0.009032
      py      :     0.009376
      dz2     :     0.000768  d :     0.002145
      dxz     :     0.000579
      dyz     :     0.000408
      dx2y2   :     0.000227
      dxy     :     0.000163

  6 H s       :     0.749109  s :     0.749109
      pz      :     0.013158  p :     0.031561
      px      :     0.009031
      py      :     0.009372
      dz2     :     0.000768  d :     0.002145
      dxz     :     0.000579
      dyz     :     0.000408
      dx2y2   :     0.000227
      dxy     :     0.000163



                     *******************************
                     * LOEWDIN POPULATION ANALYSIS *
                     *******************************

----------------------
LOEWDIN ATOMIC CHARGES
----------------------
   0 O :   -0.018136
   1 C :   -0.335082
   2 C :    0.315977
   3 H :    0.024686
   4 H :    0.024681
   5 H :   -0.006061
   6 H :   -0.006065

-------------------------------
LOEWDIN REDUCED ORBITAL CHARGES
-------------------------------
  0 O s       :     3.415254  s :     3.415254
      pz      :     1.692147  p :     4.287310
      px      :     1.267242
      py      :     1.327921
      dz2     :     0.027008  d :     0.310661
      dxz     :     0.019038
      dyz     :     0.091377
      dx2y2   :     0.075963
      dxy     :     0.097276
      f0      :     0.000487  f :     0.004912
      f+1     :     0.000142
      f-1     :     0.000761
      f+2     :     0.000709
      f-2     :     0.000236
      f+3     :     0.001371
      f-3     :     0.001207

  1 C s       :     2.642489  s :     2.642489
      pz      :     0.909217  p :     2.560243
      px      :     0.887584
      py      :     0.763441
      dz2     :     0.104260  d :     1.038806
      dxz     :     0.191773
      dyz     :     0.236707
      dx2y2   :     0.237805
      dxy     :     0.268262
      f0      :     0.012372  f :     0.093544
      f+1     :     0.007093
      f-1     :     0.011112
      f+2     :     0.019389
      f-2     :     0.005003
      f+3     :     0.011258
      f-3     :     0.027316

  2 C s       :     2.713346  s :     2.713346
      pz      :     0.969344  p :     2.438767
      px      :     0.956194
      py      :     0.513229
      dz2     :     0.072025  d :     0.499209
      dxz     :     0.208259
      dyz     :     0.030479
      dx2y2   :     0.099071
      dxy     :     0.089375
      f0      :     0.004239  f :     0.032701
      f+1     :     0.005808
      f-1     :     0.002156
      f+2     :     0.005896
      f-2     :     0.000937
      f+3     :     0.005502
      f-3     :     0.008162

  3 H s       :     0.703369  s :     0.703369
      pz      :     0.114082  p :     0.243047
      px      :     0.075552
      py      :     0.053413
      dz2     :     0.008876  d :     0.028898
      dxz     :     0.007497
      dyz     :     0.006180
      dx2y2   :     0.003464
      dxy     :     0.002880

  4 H s       :     0.703366  s :     0.703366
      pz      :     0.114078  p :     0.243055
      px      :     0.075544
      py      :     0.053433
      dz2     :     0.008875  d :     0.028898
      dxz     :     0.007495
      dyz     :     0.006183
      dx2y2   :     0.003465
      dxy     :     0.002880

  5 H s       :     0.712927  s :     0.712927
      pz      :     0.124065  p :     0.263964
      px      :     0.082321
      py      :     0.057579
      dz2     :     0.010382  d :     0.029170
      dxz     :     0.009707
      dyz     :     0.004549
      dx2y2   :     0.002600
      dxy     :     0.001932

  6 H s       :     0.712933  s :     0.712933
      pz      :     0.124072  p :     0.263963
      px      :     0.082314
      py      :     0.057577
      dz2     :     0.010384  d :     0.029170
      dxz     :     0.009706
      dyz     :     0.004550
      dx2y2   :     0.002598
      dxy     :     0.001932



                      *****************************
                      * MAYER POPULATION ANALYSIS *
                      *****************************

  NA   - Mulliken gross atomic population
  ZA   - Total nuclear charge
  QA   - Mulliken gross atomic charge
  VA   - Mayer's total valence
  BVA  - Mayer's bonded valence
  FA   - Mayer's free valence

  ATOM       NA         ZA         QA         VA         BVA        FA
  0 O      8.4763     8.0000    -0.4763     1.6296     1.6296    -0.0000
  1 C      6.0828     6.0000    -0.0828     3.4994     3.4994    -0.0000
  2 C      6.3079     6.0000    -0.3079     3.5503     3.5503     0.0000
  3 H      0.7837     1.0000     0.2163     1.0941     1.0941    -0.0000
  4 H      0.7837     1.0000     0.2163     1.0941     1.0941    -0.0000
  5 H      0.7828     1.0000     0.2172     0.9574     0.9574     0.0000
  6 H      0.7828     1.0000     0.2172     0.9574     0.9574     0.0000

  Mayer bond orders larger than 0.100000
B(  0-O ,  1-C ) :   0.6685 B(  0-O ,  2-C ) :   0.9476 B(  1-C ,  2-C ) :   0.7662 
B(  1-C ,  3-H ) :   1.0494 B(  1-C ,  4-H ) :   1.0494 B(  2-C ,  5-H ) :   0.9644 
B(  2-C ,  6-H ) :   0.9644 

-------
TIMINGS
-------

Total SCF time: 0 days 0 hours 0 min 6 sec 

Total time                  ....       6.932 sec
Sum of individual times     ....       6.938 sec  (100.1%)

SCF preparation             ....       0.874 sec  ( 12.6%)
Fock matrix formation       ....       4.059 sec  ( 58.6%)
  Startup                   ....       0.025 sec  (  0.6% of F)
  Split-RI-J                ....       0.271 sec  (  6.7% of F)
  Chain of spheres X        ....       2.737 sec  ( 67.4% of F)
  XC integration            ....       0.923 sec  ( 22.7% of F)
    XC Preparation          ....       0.000 sec  (  0.0% of XC)
    Basis function eval.    ....       0.106 sec  ( 11.4% of XC)
    Density eval.           ....       0.243 sec  ( 26.3% of XC)
    XC-Functional eval.     ....       0.035 sec  (  3.7% of XC)
    XC-Potential eval.      ....       0.345 sec  ( 37.4% of XC)
Diagonalization             ....       0.000 sec  (  0.0%)
Density matrix formation    ....       0.042 sec  (  0.6%)
Total Energy calculation    ....       0.231 sec  (  3.3%)
Population analysis         ....       0.016 sec  (  0.2%)
Orbital Transformation      ....       0.050 sec  (  0.7%)
Orbital Orthonormalization  ....       0.000 sec  (  0.0%)
DIIS solution               ....       1.594 sec  ( 23.0%)
SOSCF solution              ....       0.070 sec  (  1.0%)
Finished LeanSCF after   6.9 sec

Maximum memory used throughout the entire LEANSCF-calculation: 13.5 MB
[1741191355.304970] [ohm:198981:0]        ib_iface.c:1059 UCX  ERROR ibv_create_cq(cqe=256) failed: Connection timed out
[1741191355.318735] [ohm:199000:0]        ib_iface.c:1059 UCX  ERROR ibv_create_cq(cqe=256) failed: Connection timed out
[1741191355.323259] [ohm:198985:0]        ib_iface.c:1059 UCX  ERROR ibv_create_cq(cqe=256) failed: Connection timed out
[1741191355.366917] [ohm:198984:0]        ib_iface.c:1059 UCX  ERROR ibv_create_cq(cqe=256) failed: Connection timed out
[1741191355.368028] [ohm:198990:0]        ib_iface.c:1059 UCX  ERROR ibv_create_cq(cqe=256) failed: Connection timed out
[1741191355.377390] [ohm:198982:0]        ib_iface.c:1059 UCX  ERROR ibv_create_cq(cqe=256) failed: Connection timed out
[1741191355.383219] [ohm:198996:0]        ib_iface.c:1059 UCX  ERROR ibv_create_cq(cqe=256) failed: Connection timed out
[1741191355.384703] [ohm:198992:0]        ib_iface.c:1059 UCX  ERROR ibv_create_cq(cqe=256) failed: Connection timed out
[1741191355.385961] [ohm:198987:0]        ib_iface.c:1059 UCX  ERROR ibv_create_cq(cqe=256) failed: Connection timed out
[1741191355.390972] [ohm:199009:0]        ib_iface.c:1059 UCX  ERROR ibv_create_cq(cqe=256) failed: Connection timed out
[1741191355.393914] [ohm:198983:0]        ib_iface.c:1059 UCX  ERROR ibv_create_cq(cqe=256) failed: Connection timed out
[1741191355.394234] [ohm:198988:0]        ib_iface.c:1059 UCX  ERROR ibv_create_cq(cqe=256) failed: Connection timed out
[1741191355.399854] [ohm:198998:0]        ib_iface.c:1059 UCX  ERROR ibv_create_cq(cqe=256) failed: Connection timed out
[1741191355.407281] [ohm:199014:0]        ib_iface.c:1059 UCX  ERROR ibv_create_cq(cqe=256) failed: Connection timed out
[1741191355.446755] [ohm:199003:0]        ib_iface.c:1059 UCX  ERROR ibv_create_cq(cqe=256) failed: Connection timed out
[1741191355.474632] [ohm:198994:0]        ib_iface.c:1059 UCX  ERROR ibv_create_cq(cqe=256) failed: Connection timed out


           ************************************************************
           *        Program running with 16 parallel MPI-processes    *
           *              working on a common directory               *
           ************************************************************

------------------------------------------------------------------------------
                         ORCA PROPERTY INTEGRAL CALCULATIONS
------------------------------------------------------------------------------

GBWName                                   ... orca.gbw
Number of atoms                           ...      7
Number of basis functions                 ...    182
Max core memory                           ...   1024 MB

Dipole integrals                          ... YES
Quadrupole integrals                      ...  NO
Linear momentum integrals                 ... YES
Angular momentum integrals                ... YES
Higher moments length integrals           ...  NO
Higher moments velocity integrals         ...  NO
Kinetic energy integrals                  ...  NO
GIAO right hand sides                     ...  NO
GIAO dipole derivative integrals          ...  NO
SOC integrals                             ...  NO
EPR diamagnetic integrals (GIAO)          ...  NO
EPR gauge integrals                       ...  NO
Field gradient integrals                  ...  NO (   0 nuclei)
Spin-dipole/Fermi contact integrals       ...  NO (   0 nuclei)
Contact density integrals                 ...  NO (   0 nuclei)
Nucleus-orbit integrals                   ...  NO (   0 nuclei)
Geometric perturbations                   ...  NO (   7 nuclei)

Choice of electric origin   ... Center of mass
Position of electric origin ... (  0.3813,  0.0746, -0.0002) 
Choice of magnetic origin   ... GIAO
Position of magnetic origin ... (  0.0000,  0.0000,  0.0000) 

Calculating integrals                     ... Electric Dipole (Length)     done (  0.2 sec)
Calculating integrals                     ... Linear Momentum              done (  0.2 sec)
Calculating integrals                     ... Angular Momentum  (ElOri)    done (  0.0 sec)

Property integrals calculated in   0.4 sec

Maximum memory used throughout the entire PROPINT-calculation: 10.1 MB
[1741191357.434151] [ohm:199070:0]        ib_iface.c:1059 UCX  ERROR ibv_create_cq(cqe=256) failed: Connection timed out
[1741191357.434294] [ohm:199064:0]        ib_iface.c:1059 UCX  ERROR ibv_create_cq(cqe=256) failed: Connection timed out
[1741191357.438558] [ohm:199072:0]        ib_iface.c:1059 UCX  ERROR ibv_create_cq(cqe=256) failed: Connection timed out
[1741191357.443503] [ohm:199066:0]        ib_iface.c:1059 UCX  ERROR ibv_create_cq(cqe=256) failed: Connection timed out
[1741191357.467831] [ohm:199068:0]        ib_iface.c:1059 UCX  ERROR ibv_create_cq(cqe=256) failed: Connection timed out
[1741191357.476525] [ohm:199076:0]        ib_iface.c:1059 UCX  ERROR ibv_create_cq(cqe=256) failed: Connection timed out
[1741191357.476590] [ohm:199100:0]        ib_iface.c:1059 UCX  ERROR ibv_create_cq(cqe=256) failed: Connection timed out
[1741191357.477854] [ohm:199086:0]        ib_iface.c:1059 UCX  ERROR ibv_create_cq(cqe=256) failed: Connection timed out
[1741191357.481017] [ohm:199067:0]        ib_iface.c:1059 UCX  ERROR ibv_create_cq(cqe=256) failed: Connection timed out
[1741191357.488658] [ohm:199083:0]        ib_iface.c:1059 UCX  ERROR ibv_create_cq(cqe=256) failed: Connection timed out
[1741191357.498294] [ohm:199098:0]        ib_iface.c:1059 UCX  ERROR ibv_create_cq(cqe=256) failed: Connection timed out
[1741191357.507986] [ohm:199065:0]        ib_iface.c:1059 UCX  ERROR ibv_create_cq(cqe=256) failed: Connection timed out
[1741191357.514512] [ohm:199069:0]        ib_iface.c:1059 UCX  ERROR ibv_create_cq(cqe=256) failed: Connection timed out
[1741191357.517417] [ohm:199071:0]        ib_iface.c:1059 UCX  ERROR ibv_create_cq(cqe=256) failed: Connection timed out
[1741191357.517485] [ohm:199101:0]        ib_iface.c:1059 UCX  ERROR ibv_create_cq(cqe=256) failed: Connection timed out
[1741191357.521527] [ohm:199075:0]        ib_iface.c:1059 UCX  ERROR ibv_create_cq(cqe=256) failed: Connection timed out


           ************************************************************
           *        Program running with 16 parallel MPI-processes    *
           *              working on a common directory               *
           ************************************************************
------------------------------------------------------------------------------
                        ORCA TD-DFT/TDA CALCULATION
------------------------------------------------------------------------------

Input orbitals are from        ... orca.gbw
CI-vector output               ... orca.cis
Solver                         ... FN-2001
Tamm-Dancoff approximation     ... operative
CIS-Integral strategy          ... AO-integrals
Integral handling              ... AO integral Direct
Max. core memory used          ... 512 MB
Reference state                ... RHF
Generation of triplets         ... off
Follow IRoot                   ... off
Number of operators            ... 1
Orbital ranges used for CIS calculation:
 Operator 0:  Orbitals   3... 11  to  12...181
XAS localization array:
 Operator 0:  Orbitals  -1... -1

-------------------
XC-INTEGRATION GRID
-------------------

General Integration Accuracy     IntAcc      ... 3.467
Radial Grid Type                 RadialGrid  ... OptM3 with GC (2021)
Angular Grid (max. ang.)         AngularGrid ... 1 (Lebedev-50)
Angular grid pruning method      GridPruning ... 4 (adaptive)
Weight generation scheme         WeightScheme... mBecke (2022)
Basis function cutoff            BFCut       ... 1.0000e-11
Integration weight cutoff        WCut        ... 1.0000e-14
Partially contracted basis set               ... off
Rotationally invariant grid construction     ... off
Angular grids for H and He will be reduced by one unit
Diffuse basis detected: some atoms will have their outermost
                        angular grid increased by 1.

Total number of grid points                  ...     4743
Total number of batches                      ...       77
Average number of points per batch           ...       61
Average number of grid points per atom       ...      678

---------------------
COSX-INTEGRATION GRID
---------------------

General Integration Accuracy     IntAcc      ... 3.067
Radial Grid Type                 RadialGrid  ... OptM3 with GC (2021)
Angular Grid (max. ang.)         AngularGrid ... 1 (Lebedev-50)
Angular grid pruning method      GridPruning ... 4 (adaptive)
Weight generation scheme         WeightScheme... mBecke (2022)
Basis function cutoff            BFCut       ... 1.0000e-11
Integration weight cutoff        WCut        ... 1.0000e-14
Partially contracted basis set               ... on
Rotationally invariant grid construction     ... off
Angular grids for H and He will be reduced by one unit
Diffuse basis detected: some atoms will have their outermost
                        angular grid increased by 1.

Total number of grid points                  ...     2153
Total number of batches                      ...       22
Average number of points per batch           ...       97
Average number of grid points per atom       ...      308

---------------
TD-DFT XC SETUP
---------------

DFT calculation                         ... on
Name of the grid file                   ... orca.grid_cis.tmp
RI-approximation                        ... on
Aux-basis dimension                     ... 0
Functional (TD-DFT)
  Functional kind                       .... Exchange-Correlation
  Functional name                       .... wB97M-V exchange-correlation functional
  Functional family                     .... Hybrid MGGA
  Functional refs                              
    [ 0] N. Mardirossian and M. Head-Gordon.,  J. Chem. Phys. 144, 214110 (2016), doi: 10.1063/1.4952647
  Fraction of HF Exchange (short range) .... 0.1500
  Fraction of HF Exchange (long range)  .... 1.0000
  Range separation parameter mu         .... 0.3000
  Functional external parameters        .... 17
    Parameter  0 _cx00      =  8.500000e-01 : u^00 coefficient for exchange
    Parameter  1 _cx01      =  1.007000e+00 : u^01 coefficient for exchange
    Parameter  2 _cx10      =  2.590000e-01 : u^10 coefficient for exchange
    Parameter  3 _css00     =  4.430000e-01 : u^00 coefficient for same-spin correlation
    Parameter  4 _css04     = -1.437000e+00 : u^04 coefficient for same-spin correlation
    Parameter  5 _css10     = -4.535000e+00 : u^10 coefficient for same-spin correlation
    Parameter  6 _css20     = -3.390000e+00 : u^20 coefficient for same-spin correlation
    Parameter  7 _css43     =  4.278000e+00 : u^43 coefficient for same-spin correlation
    Parameter  8 _cos00     =  1.000000e+00 : u^00 coefficient for opposite-spin correlation
    Parameter  9 _cos10     =  1.358000e+00 : u^10 coefficient for opposite-spin correlation
    Parameter 10 _cos20     =  2.924000e+00 : u^20 coefficient for opposite-spin correlation
    Parameter 11 _cos21     = -8.812000e+00 : u^21 coefficient for opposite-spin correlation
    Parameter 12 _cos60     = -1.390000e+00 : u^60 coefficient for opposite-spin correlation
    Parameter 13 _cos61     =  9.142000e+00 : u^61 coefficient for opposite-spin correlation
    Parameter 14 _alpha     =  1.000000e+00 : fraction of HF exchange
    Parameter 15 _beta      = -8.500000e-01 : fraction of short-range exchange
    Parameter 16 _omega     =  3.000000e-01 : range-separation constant
Hybrid DFT                              ... on
   Exchange mixing (TD-DFT)             ...  0.150
   GGA exch. scaling (TD-DFT)           ...  0.000
   GGA corr. scaling (TD-DFT)           ...  1.000
Range-Separated Exchange                ... on
   Range Range separation parameter mu  .... 0.300
   Max. amount of RS exchange (TD-DFT)  ...  0.850

Building densities             ... done
Calculating rho(r) on the grid ... done
Building xc-kernel on the grid ... done
                    *** TD-DFT CALCULATION INITIALIZED ***

------------------------
DAVIDSON-DIAGONALIZATION
------------------------

Dimension of the eigenvalue problem            ...   1530
Number of roots to be determined               ...      4
Maximum size of the expansion space            ...     40
Maximum number of iterations                   ...    100
Convergence tolerance for the residual         ...    2.500e-07
Convergence tolerance for the energies         ...    2.500e-07
Orthogonality tolerance                        ...    1.000e-14
Level Shift                                    ...    0.000e+00
Constructing the preconditioner                ... o.k.
Building the initial guess                     ... o.k.
Number of trial vectors determined             ...     40


                       ****Iteration    0****
   Time for iteration     :  TOTAL=0.9 TRAFO=0.0 RIJ=0.3 COSX=0.3 XC=0.2
   Size of expansion space: 12
   Lowest Energy          :     0.119769218224
   Maximum Energy change  :     0.276791488424 (vector 3)
   Maximum residual norm  :     0.015797262743

                       ****Iteration    1****
   Time for iteration     :  TOTAL=0.2 TRAFO=0.0 RIJ=0.0 COSX=0.1 XC=0.0
   Size of expansion space: 16
   Lowest Energy          :     0.114446820860
   Maximum Energy change  :     0.036243010469 (vector 1)
   Maximum residual norm  :     0.005261147293

                       ****Iteration    2****
   Time for iteration     :  TOTAL=0.2 TRAFO=0.0 RIJ=0.0 COSX=0.1 XC=0.1
   Size of expansion space: 20
   Lowest Energy          :     0.114191303229
   Maximum Energy change  :     0.007220694414 (vector 1)
   Maximum residual norm  :     0.000978112294

                       ****Iteration    3****
   Time for iteration     :  TOTAL=0.3 TRAFO=0.0 RIJ=0.1 COSX=0.1 XC=0.0
   Size of expansion space: 24
   Lowest Energy          :     0.114157524785
   Maximum Energy change  :     0.001251838480 (vector 1)
   Maximum residual norm  :     0.001282455132

                       ****Iteration    4****
   Time for iteration     :  TOTAL=0.2 TRAFO=0.0 RIJ=0.0 COSX=0.1 XC=0.1
   Size of expansion space: 28
   Lowest Energy          :     0.114155436433
   Maximum Energy change  :     0.012480273805 (vector 3)
   Maximum residual norm  :     0.001375572645

                       ****Iteration    5****
   Time for iteration     :  TOTAL=0.2 TRAFO=0.0 RIJ=0.0 COSX=0.1 XC=0.1
   Size of expansion space: 32
   Lowest Energy          :     0.114155373578
   Maximum Energy change  :     0.001330325783 (vector 3)
   Maximum residual norm  :     0.000069006516

                       ****Iteration    6****
   Time for iteration     :  TOTAL=0.3 TRAFO=0.0 RIJ=0.1 COSX=0.1 XC=0.1
   Size of expansion space: 36
   Lowest Energy          :     0.114155372559
   Maximum Energy change  :     0.000063213169 (vector 3)
   Maximum residual norm  :     0.000002366520

                       ****Iteration    7****
   Time for iteration     :  TOTAL=0.3 TRAFO=0.0 RIJ=0.0 COSX=0.1 XC=0.1
   Size of expansion space: 40
   Lowest Energy          :     0.114155372540
   Maximum Energy change  :     0.000003336637 (vector 1)
   Maximum residual norm  :     0.000000333926
   Rebuilding the expansion space

                       ****Iteration    8****
   Time for iteration     :  TOTAL=0.3 TRAFO=0.0 RIJ=0.0 COSX=0.1 XC=0.1
   Size of expansion space: 8
   Lowest Energy          :     0.114156680734
   Maximum Energy change  :     0.000004572451 (vector 3)
   Maximum residual norm  :     0.000000035452

      *** CONVERGENCE OF RESIDUAL NORM REACHED ***

Storing the converged CI vectors               ... orca.cis1

                 *** DAVIDSON DONE ***

Total time for solving the CIS problem:     3.461sec

------------------------------------
TD-DFT/TDA EXCITED STATES (SINGLETS)
------------------------------------

the weight of the individual excitations are printed if larger than 1.0e-02

STATE  1:  E=   0.114157 au      3.106 eV    25054.5 cm**-1 <S**2> =   0.000000 Mult 1
    11a ->  12a  :     0.933403 (c= -0.96612801)
    11a ->  13a  :     0.026960 (c=  0.16419602)
    11a ->  16a  :     0.012368 (c= -0.11120944)

STATE  2:  E=   0.207360 au      5.643 eV    45510.2 cm**-1 <S**2> =   0.000000 Mult 1
     7a ->  12a  :     0.064888 (c= -0.25473099)
     8a ->  12a  :     0.017982 (c=  0.13409587)
    10a ->  12a  :     0.828243 (c= -0.91007864)
    11a ->  20a  :     0.015344 (c=  0.12386948)

STATE  3:  E=   0.245819 au      6.689 eV    53950.9 cm**-1 <S**2> =   0.000000 Mult 1
     9a ->  12a  :     0.033511 (c=  0.18306053)
    11a ->  12a  :     0.013959 (c= -0.11814822)
    11a ->  13a  :     0.739999 (c= -0.86023211)
    11a ->  14a  :     0.147227 (c=  0.38370218)
    11a ->  18a  :     0.030541 (c= -0.17475951)

STATE  4:  E=   0.256637 au      6.983 eV    56325.2 cm**-1 <S**2> =   0.000000 Mult 1
     9a ->  12a  :     0.899930 (c=  0.94864627)
     9a ->  13a  :     0.015657 (c= -0.12512689)
     9a ->  16a  :     0.014155 (c=  0.11897340)
    11a ->  13a  :     0.018784 (c=  0.13705495)
    11a ->  14a  :     0.014422 (c= -0.12009144)


-----------------------------
TD-DFT/TDA-EXCITATION SPECTRA
-----------------------------

Center of mass = (  0.3813,  0.0746, -0.0002)
Generating CIS transition densities           ... done

----------------------------------------------------------------------------------------------------
                     ABSORPTION SPECTRUM VIA TRANSITION ELECTRIC DIPOLE MOMENTS    
----------------------------------------------------------------------------------------------------
     Transition      Energy     Energy  Wavelength fosc(D2)      D2        DX        DY        DZ   
                      (eV)      (cm-1)    (nm)                 (au**2)    (au)      (au)      (au)  
----------------------------------------------------------------------------------------------------
  0-1A  ->  1-1A    3.106361   25054.5   399.1   0.001126765   0.01481  -0.00001  -0.00000   0.12168
  0-1A  ->  2-1A    5.642540   45510.2   219.7   0.168470075   1.21868  -0.80720  -0.75306   0.00020
  0-1A  ->  3-1A    6.689063   53950.9   185.4   0.002838447   0.01732   0.00006   0.00009   0.13161
  0-1A  ->  4-1A    6.983435   56325.2   177.5   0.000516919   0.00302  -0.00021  -0.00018  -0.05497

----------------------------------------------------------------------------------------------------
                     ABSORPTION SPECTRUM VIA TRANSITION VELOCITY DIPOLE MOMENTS    
----------------------------------------------------------------------------------------------------
     Transition      Energy     Energy  Wavelength fosc(P2)      P2        PX        PY        PZ   
                      (eV)      (cm-1)    (nm)                 (au**2)    (au)      (au)      (au)  
----------------------------------------------------------------------------------------------------
  0-1A  ->  1-1A    3.106361   25054.5   399.1   0.007703747   0.00132  -0.00000  -0.00001  -0.03632
  0-1A  ->  2-1A    5.642540   45510.2   219.7   0.013771533   0.00428   0.02156  -0.06179   0.00002
  0-1A  ->  3-1A    6.689063   53950.9   185.4   0.001830084   0.00067  -0.00000  -0.00001  -0.02598
  0-1A  ->  4-1A    6.983435   56325.2   177.5   0.003454395   0.00133   0.00001   0.00004   0.03647

------------------------------------------------------------------------------------------
                     CD SPECTRUM VIA TRANSITION ELECTRIC DIPOLE MOMENTS    
------------------------------------------------------------------------------------------
     Transition      Energy     Energy  Wavelength    R        MX        MY        MZ   
                      (eV)      (cm-1)    (nm)   (1e40*cgs)   (au)      (au)      (au)  
------------------------------------------------------------------------------------------
  0-1A  ->  1-1A    3.106361   25054.5   399.1   -0.00308   0.00829  -0.22768   0.00005
  0-1A  ->  2-1A    5.642540   45510.2   219.7    0.02339   0.00001   0.00004  -0.04311
  0-1A  ->  3-1A    6.689063   53950.9   185.4   -0.01126   0.33890   0.14166  -0.00006
  0-1A  ->  4-1A    6.983435   56325.2   177.5    0.02268   0.23808  -0.01166   0.00002

------------------------------------------------------------------------------------------
                     CD SPECTRUM VIA TRANSITION VELOCITY DIPOLE MOMENTS    
------------------------------------------------------------------------------------------
     Transition      Energy     Energy  Wavelength    R        MX        MY        MZ   
                      (eV)      (cm-1)    (nm)   (1e40*cgs)   (au)      (au)      (au)  
------------------------------------------------------------------------------------------
  0-1A  ->  1-1A    3.106361   25054.5   399.1    0.00430   0.00829  -0.22768   0.00005
  0-1A  ->  2-1A    5.642540   45510.2   219.7   -0.00725   0.00001   0.00004  -0.04311
  0-1A  ->  3-1A    6.689063   53950.9   185.4   -0.00118   0.33890   0.14166  -0.00006
  0-1A  ->  4-1A    6.983435   56325.2   177.5    0.00506   0.23808  -0.01166   0.00002

Total run time:        5.743 sec

           *** ORCA-CIS/TD-DFT FINISHED WITHOUT ERROR ***
-----------------------
CIS/TD-DFT TOTAL ENERGY
-----------------------

    E(SCF)  =   -153.826679843 Eh
    DE(CIS) =      0.114156681 Eh (Root  1)
    ----------------------------- ---------
    E(tot)  =   -153.712523162 Eh


------------------------
TD-DFT GRADIENT XC SETUP
------------------------

Building densities                     ... done
Calculating rho(r) on the grid         ... done
Building xc-kernel on the grid         ... done
Building xc 3rd derivative on the grid ... done
                *** TD-DFT GRADIENT CALCULATION INITIALIZED ***

--------------------------
TD-DFT/TDA RELAXED DENSITY
--------------------------

Reference wavefunction             ... RHF
State of interest                  ... 1
Basis dimension                    ... 182
DFT-XC contribution needed         ... YES
RI-approximation                   ... YES
Do Coulomb                         ... YES
Do Exchange                        ... YES
Need Hartree-Fock Exchange         ... YES
facj, facx                         ...  2.000, -0.150
Conventional                       ... NO
Range separation                   ... YES
Triplet state                      ... NO
Spin Flip                          ... NO
CIS-vectors being read from        ... orca.cis
 => Number of Vectors found: 4
 => Orbital Window: 3...11 -> 12...181

Reading the CIS file                     ... done
Norm of the CI vector                    ... 1.000000000
Making the CIS (pseudo)densities         ... done
Making operators G(D) and Q(T)           ... (SHARK-ok)done
Transforming the Fock operators          ... done
Making the frozen-core relaxed density   ... done
Constructing the G(H) operator           ... (SHARK-ok)done
Transforming the G(H) operator           ... done
Calculating the CIS Lagrangian           ... done
Solving the Z-vector equations           ... 

Using XC Grid                  ... (orca.grid_cpscf.tmp) 
Recalculating density on grid  ... (orca.grho_cpscf0.tmp) done
Calculating the xc-kernel      ... (orca.fxc_cpscf0.tmp) done

-------------------
SHARK CP-SCF DRIVER
-------------------

Dimension of the orbital basis          ...    182
Dimension of the CPSCF-problem          ...   2040
Number of operators                     ...      1
Max. number of iterations               ...    128
Convergence Tolerance                   ... 1.0e-04
Number of perturbations                 ...      1
Perturbation type                       ... REAL

----------------------------
POPLE LINEAR EQUATION SOLVER
----------------------------

  ITERATION   0:   ||err||_max =   2.1061e+00 (   0.1 sec)
  ITERATION   1:   ||err||_max =   6.6309e-02 (   0.2 sec)
  ITERATION   2:   ||err||_max =   2.2826e-02 (   0.2 sec)
  ITERATION   3:   ||err||_max =   6.8757e-03 (   0.2 sec)
  ITERATION   4:   ||err||_max =   2.5686e-03 (   0.2 sec)
  ITERATION   5:   ||err||_max =   4.5987e-04 (   0.2 sec)
  ITERATION   6:   ||err||_max =   8.5124e-05 (   0.2 sec)

Finalizing the relaxed density           ... done
Storing the relaxed density              ... done
Constructing the G(Z) operator           ... (SHARK-ok)done
Adding the XC terms                      ... done
Transforming the G(Z) operator           ... done
Making the W-matrix                      ... done
Finalizing the W-matrix                  ... done
Transforming the W-matrix                ... done
Nuc. rep. gradient        (SHARK) ... done (  0.0 sec)
HCore & Overlap gradient  (SHARK) ... done (  0.0 sec)
Split-RIJ-J gradient      (SHARK) ... done (  0.1 sec)
COSX-gradient                     ... done (  2.1 sec)
Dispersion correction             ... done (  0.0 sec)

-------------------
DISPERSION GRADIENT
-------------------

   1   O   :    0.000097188    0.000216808   -0.000000054
   2   C   :    0.000100544    0.000003781   -0.000000008
   3   C   :   -0.000124074   -0.000020974    0.000000011
   4   H   :    0.000170601   -0.000051024    0.000093776
   5   H   :    0.000170566   -0.000051075   -0.000093785
   6   H   :   -0.000207418   -0.000048774   -0.000112424
   7   H   :   -0.000207406   -0.000048742    0.000112485

Difference to translation invariance:
           :    0.0000000000   -0.0000000000    0.0000000000

Difference to rotation invariance:
           :    0.0000000000    0.0000000000   -0.0000000000

Norm of the Dispersion gradient    ...    0.0005286721
RMS gradient                       ...    0.0001153657
MAX gradient                       ...    0.0002168084

                 ---------------------------
                 EXCITED STATE GRADIENT DONE
[...]
      f0      :     0.007745  f :     0.100939
      f+1     :     0.006927
      f-1     :     0.011008
      f+2     :     0.012681
      f-2     :     0.005058
      f+3     :     0.030998
      f-3     :     0.026521
  2 C s       :     2.708612  s :     2.708612
      pz      :     0.953417  p :     2.582073
      px      :     0.927751
      py      :     0.700905
      dz2     :     0.079883  d :     0.497263
      dxz     :     0.193427
      dyz     :     0.013516
      dx2y2   :     0.112701
      dxy     :     0.097736
      f0      :     0.004057  f :     0.033460
      f+1     :     0.005845
      f-1     :     0.002075
      f+2     :     0.005228
      f-2     :     0.000717
      f+3     :     0.007910
      f-3     :     0.007628
  3 H s       :     0.668684  s :     0.668684
      pz      :     0.109998  p :     0.252431
      px      :     0.081415
      py      :     0.061019
      dz2     :     0.009078  d :     0.029453
      dxz     :     0.007550
      dyz     :     0.006256
      dx2y2   :     0.003655
      dxy     :     0.002913
  4 H s       :     0.668670  s :     0.668670
      pz      :     0.109996  p :     0.252442
      px      :     0.081409
      py      :     0.061037
      dz2     :     0.009077  d :     0.029453
      dxz     :     0.007549
      dyz     :     0.006259
      dx2y2   :     0.003656
      dxy     :     0.002913
  5 H s       :     0.719932  s :     0.719932
      pz      :     0.120895  p :     0.299237
      px      :     0.080392
      py      :     0.097950
      dz2     :     0.009484  d :     0.030838
      dxz     :     0.009036
      dyz     :     0.007103
      dx2y2   :     0.002608
      dxy     :     0.002607
  6 H s       :     0.719937  s :     0.719937
      pz      :     0.120901  p :     0.299237
      px      :     0.080385
      py      :     0.097951
      dz2     :     0.009485  d :     0.030838
      dxz     :     0.009036
      dyz     :     0.007104
      dx2y2   :     0.002606
      dxy     :     0.002606


                      *****************************
                      * MAYER POPULATION ANALYSIS *
                      *****************************

  NA   - Mulliken gross atomic population
  ZA   - Total nuclear charge
  QA   - Mulliken gross atomic charge
  VA   - Mayer's total valence
  BVA  - Mayer's bonded valence
  FA   - Mayer's free valence

  ATOM       NA         ZA         QA         VA         BVA        FA
  0 O      8.3562     8.0000    -0.3562     1.8326     1.0255     0.8072
  1 C      5.9467     6.0000     0.0533     3.5300     3.4046     0.1254
  2 C      6.4992     6.0000    -0.4992     3.4488     2.8032     0.6456
  3 H      0.7986     1.0000     0.2014     1.0276     0.9736     0.0541
  4 H      0.7986     1.0000     0.2014     1.0276     0.9735     0.0541
  5 H      0.8003     1.0000     0.1997     1.0534     0.9999     0.0535
  6 H      0.8004     1.0000     0.1996     1.0534     0.9999     0.0535

  Mayer bond orders larger than 0.100000
B(  0-O ,  1-C ) :   0.8294 B(  0-O ,  2-C ) :   0.1187 B(  1-C ,  2-C ) :   0.7488 
B(  1-C ,  3-H ) :   0.9515 B(  1-C ,  4-H ) :   0.9515 B(  2-C ,  5-H ) :   0.9961 
B(  2-C ,  6-H ) :   0.9961 


-------
TIMINGS
-------

Total TD-DFT gradient time  ....        5.295 sec

Fock matrix formation       ....       1.086 sec  ( 20.5%)
  Coulomb formation         ....       0.827 sec  ( 76.1% of F)
  XC integration            ....       0.259 sec  ( 23.9% of F)
Z-vector equation           ....       1.356 sec  ( 25.6%)
Densities                   ....       0.000 sec  (  0.0%)
One electron gradient       ....       0.010 sec  (  0.2%)
RI-J Coulomb gradient       ....       0.104 sec  (  2.0%)
COSX gradient               ....       0.418 sec  (  7.9%)
XC gradient                 ....       2.132 sec  ( 40.3%)

Maximum memory used throughout the entire CIS-calculation: 34.9 MB
=> NOW LEAVING ORCA_CIS


-------------------------------------------------------------------------------
                          DFT DISPERSION CORRECTION                            
                                                                               
                              DFTD3 V3.1  Rev 1                                
                          USING Becke-Johnson damping                          
-------------------------------------------------------------------------------
The WB97M functional is recognized
Active option DFTDOPT                   ...         4   

molecular C6(AA) [au] = 383.765546 


            DFT-D V3
 parameters
 s6 scaling factor         :     1.0000 
 a1 scaling factor         :     0.5660 
 s8 scaling factor         :     0.3908 
 a2 scaling factor         :     3.1280 
 ad hoc parameters k1-k3   :    16.0000     1.3333    -4.0000 

 Edisp/kcal,au: -3.519197360086  -0.005608197374 
 E6   /kcal   :  -2.834985909 
 E8   /kcal   :  -0.684211451 
 % E8         :  19.442258602 

-------------------------   ----------------
Dispersion correction           -0.005608197
-------------------------   ----------------


-------------------------   --------------------
FINAL SINGLE POINT ENERGY      -153.718131359701
-------------------------   --------------------

[1741191369.772592] [ohm:199154:0]        ib_iface.c:1059 UCX  ERROR ibv_create_cq(cqe=256) failed: Connection timed out
[1741191369.780943] [ohm:199152:0]        ib_iface.c:1059 UCX  ERROR ibv_create_cq(cqe=256) failed: Connection timed out
[1741191369.789553] [ohm:199156:0]        ib_iface.c:1059 UCX  ERROR ibv_create_cq(cqe=256) failed: Connection timed out
[1741191369.801528] [ohm:199153:0]        ib_iface.c:1059 UCX  ERROR ibv_create_cq(cqe=256) failed: Connection timed out
[1741191369.805400] [ohm:199158:0]        ib_iface.c:1059 UCX  ERROR ibv_create_cq(cqe=256) failed: Connection timed out
[1741191369.816084] [ohm:199159:0]        ib_iface.c:1059 UCX  ERROR ibv_create_cq(cqe=256) failed: Connection timed out
[1741191369.828720] [ohm:199157:0]        ib_iface.c:1059 UCX  ERROR ibv_create_cq(cqe=256) failed: Connection timed out
[1741191369.840033] [ohm:199161:0]        ib_iface.c:1059 UCX  ERROR ibv_create_cq(cqe=256) failed: Connection timed out
[1741191369.844318] [ohm:199172:0]        ib_iface.c:1059 UCX  ERROR ibv_create_cq(cqe=256) failed: Connection timed out
[1741191369.844803] [ohm:199164:0]        ib_iface.c:1059 UCX  ERROR ibv_create_cq(cqe=256) failed: Connection timed out
[1741191369.848174] [ohm:199155:0]        ib_iface.c:1059 UCX  ERROR ibv_create_cq(cqe=256) failed: Connection timed out
[1741191369.856589] [ohm:199163:0]        ib_iface.c:1059 UCX  ERROR ibv_create_cq(cqe=256) failed: Connection timed out
[1741191369.860905] [ohm:199177:0]        ib_iface.c:1059 UCX  ERROR ibv_create_cq(cqe=256) failed: Connection timed out
[1741191369.871840] [ohm:199180:0]        ib_iface.c:1059 UCX  ERROR ibv_create_cq(cqe=256) failed: Connection timed out
[1741191369.889202] [ohm:199166:0]        ib_iface.c:1059 UCX  ERROR ibv_create_cq(cqe=256) failed: Connection timed out
[1741191369.907771] [ohm:199184:0]        ib_iface.c:1059 UCX  ERROR ibv_create_cq(cqe=256) failed: Connection timed out


           ************************************************************
           *        Program running with 16 parallel MPI-processes    *
           *              working on a common directory               *
           ************************************************************

------------------------------------------------------------------------------
                              ORCA PROPERTY CALCULATIONS
------------------------------------------------------------------------------

GBWName                                 ... orca.gbw
Number of atoms                         ...      7
Number of basis functions               ...    182
Max core memory                         ...   1024 MB

Electric properties:
Dipole moment                           ... YES
Quadrupole moment                       ...  NO
Static polarizability (Dipole/Dipole)   ...  NO
Static polarizability (Dipole/Quad.)    ...  NO
Static polarizability (Quad./Quad.)     ...  NO
Static polarizability (Velocity)        ...  NO

Atomic electric properties:
Dipole moment                           ...  NO
Quadrupole moment                       ...  NO
Static polarizability                   ...  NO

Choice of electric origin               ... Center of mass
Position of electric origin             ...     0.381337     0.074584    -0.000166

General magnetic properties:
Magnetizability                         ...  NO

EPR properties:
g-Tensor (aka g-matrix)                 ...  NO
Zero-Field splitting spin-orbit         ...  NO
Zero-field splitting spin-spin          ...  NO
Hyperfine couplings                     ...  NO (   0 nuclei)
Quadrupole couplings                    ...  NO (   0 nuclei)
Contact density                         ...  NO (   0 nuclei)

NMR properties:
Chemical shifts                         ...  NO (   0 nuclei)
Spin-rotation constants                 ...  NO (   0 nuclei)
Spin-spin couplings                     ...  NO (   0 nuclei,    0 pairs)

Choice of magnetic origin               ... GIAO
Position of magnetic origin             ...     0.000000     0.000000     0.000000

Properties with geometric perturbations:
SCF Hessian                             ...  NO
IR spectrum                             ...  NO
VCD spectrum                            ...  NO
X-ray spectroscopy properties:
SCF XES/XAS/RIXS spectra                ...  NO


-------------
DIPOLE MOMENT
-------------

Method             : SCF
Type of density    : Electron Density
Multiplicity       :   1
Irrep              :   0
Energy             :  -153.8266798430611573 Eh
Relativity type    : 
Basis              : AO
                                X                 Y                 Z
Electronic contribution:      0.187363086       1.431564520      -0.000265210
Nuclear contribution   :     -0.640613602      -2.523041033       0.000547863
                        -----------------------------------------
Total Dipole Moment    :     -0.453250516      -1.091476512       0.000282653
                        -----------------------------------------
Magnitude (a.u.)       :      1.181844781
Magnitude (Debye)      :      3.004010701



--------------------
Rotational spectrum 
--------------------
 
Rotational constants in cm-1:             1.035247             0.522888             0.402626 
Rotational constants in MHz :         31035.934692         15675.790888         12070.415544 

Dipole components along the rotational axes: 
x,y,z [a.u.] :    -1.115170     0.391346     0.000004 
x,y,z [Debye]:    -2.834538     0.994723     0.000011 

 

-------------
DIPOLE MOMENT
-------------

Method             : TDA/CIS
Type of density    : Electron Density
Level              : Relaxed density
State              :   1
Multiplicity       :   1
Irrep              :   0
Energy             :     0.0000000000000000 Eh
Relativity type    : 
Basis              : AO
                                X                 Y                 Z
Electronic contribution:      0.955453408       1.921162371      -0.000446262
Nuclear contribution   :     -0.640613602      -2.523041033       0.000547863
                        -----------------------------------------
Total Dipole Moment    :      0.314839807      -0.601878661       0.000101602
                        -----------------------------------------
Magnitude (a.u.)       :      0.679251085
Magnitude (Debye)      :      1.726519050



--------------------
Rotational spectrum 
--------------------
 
Rotational constants in cm-1:             1.035247             0.522888             0.402626 
Rotational constants in MHz :         31035.934692         15675.790888         12070.415544 

Dipole components along the rotational axes: 
x,y,z [a.u.] :    -0.237849     0.636247    -0.000018 
x,y,z [Debye]:    -0.604565     1.617210    -0.000045 

 

Dipole moment calculation done in   0.0 sec 

Maximum memory used throughout the entire PROP-calculation: 7.3 MB
[1741191371.391785] [ohm:199243:0]        ib_iface.c:1059 UCX  ERROR ibv_create_cq(cqe=256) failed: Connection timed out
[1741191371.437107] [ohm:199253:0]        ib_iface.c:1059 UCX  ERROR ibv_create_cq(cqe=256) failed: Connection timed out
[1741191371.440658] [ohm:199245:0]        ib_iface.c:1059 UCX  ERROR ibv_create_cq(cqe=256) failed: Connection timed out
[1741191371.440739] [ohm:199241:0]        ib_iface.c:1059 UCX  ERROR ibv_create_cq(cqe=256) failed: Connection timed out
[1741191371.455079] [ohm:199242:0]        ib_iface.c:1059 UCX  ERROR ibv_create_cq(cqe=256) failed: Connection timed out
[1741191371.455079] [ohm:199244:0]        ib_iface.c:1059 UCX  ERROR ibv_create_cq(cqe=256) failed: Connection timed out
[1741191371.455087] [ohm:199247:0]        ib_iface.c:1059 UCX  ERROR ibv_create_cq(cqe=256) failed: Connection timed out
[1741191371.461052] [ohm:199264:0]        ib_iface.c:1059 UCX  ERROR ibv_create_cq(cqe=256) failed: Connection timed out
[1741191371.461153] [ohm:199256:0]        ib_iface.c:1059 UCX  ERROR ibv_create_cq(cqe=256) failed: Connection timed out
[1741191371.491095] [ohm:199263:0]        ib_iface.c:1059 UCX  ERROR ibv_create_cq(cqe=256) failed: Connection timed out
[1741191371.497225] [ohm:199254:0]        ib_iface.c:1059 UCX  ERROR ibv_create_cq(cqe=256) failed: Connection timed out
[1741191371.500190] [ohm:199261:0]        ib_iface.c:1059 UCX  ERROR ibv_create_cq(cqe=256) failed: Connection timed out
[1741191371.501790] [ohm:199271:0]        ib_iface.c:1059 UCX  ERROR ibv_create_cq(cqe=256) failed: Connection timed out
[1741191371.543982] [ohm:199267:0]        ib_iface.c:1059 UCX  ERROR ibv_create_cq(cqe=256) failed: Connection timed out
[1741191371.544077] [ohm:199273:0]        ib_iface.c:1059 UCX  ERROR ibv_create_cq(cqe=256) failed: Connection timed out
[1741191371.547838] [ohm:199260:0]        ib_iface.c:1059 UCX  ERROR ibv_create_cq(cqe=256) failed: Connection timed out

--------------------------------
SUGGESTED CITATIONS FOR THIS RUN
--------------------------------

Below you find a list of papers that are relevant to this ORCA run
We neither can nor want to force you to cite these papers, but we appreciate if you do
You receive ORCA, which is the product of decades of hard work by many enthusiastic individuals, for free
The only thing we kindly ask in return is that you cite our papers,
We deeply appreciate it, if you show your appreciation for ORCA by not just citing the generic ORCA reference.

Please note that relegating all ORCA citations to the supporting information does *not* help us.
SI sections are not indexed - citations you put there will not count into any citation statistics
But we need these citations in order to attract the funding resources that allow us to do what we are doing

Therefore, if you are a happy ORCA user, please consider citing a few of the papers listed below in the main body of your paper

In addition to the list printed below, the program has created the file orca.bibtex that contains the list in bibtex format
You can import this file easily into all common literature databanks and citation aid programs


List of essential papers. We consider these as the minimum necessary citations

  1. Neese,F.
     Software update: the ORCA program system, version 5.0
     WIRES Comput. Molec. Sci., 2022 12(1)e1606
     doi.org/10.1002/wcms.1606

List of papers to cite with high priority. The work reported in these papers was absolutely
necessary for this run to complete.
Our perspective: the developers of density functionals and basis sets usually get cited in chemistry papers
Good! But without the algorithms to do something with them, the functionals or basis sets would not do anything.
Hence, in our opinion, the algorithm design and method developments papers are equally worthy of getting cited

  1. Neese,F.; Olbrich,G.
     Efficient use of the resolution of the identity approximation in time-dependent density functional calculations with hybrid density functionals
     Chem. Phys. Lett., 2002 362 170-178
     doi.org/10.1016/s0009-2614(02)01053-9
  2. Neese,F.
     An improvement of the resolution of the identity approximation for the formation of the Coulomb matrix
     J. Comp. Chem., 2003 24(14)1740-1747
     doi.org/10.1002/jcc.10318
  3. Neese,F.; Wennmohs,F.; Hansen,A.; Becker,U.
     Efficient, approximate and parallel Hartree-Fock and hybrid DFT calculations. A 'chain-of-spheres' algorithm for the Hartree-Fock exchange
     Chem. Phys., 2009 356(1-3)98-109
     doi.org/10.1016/j.chemphys.2008.10.036
  4. Petrenko,T.; Kossmann,S.; Neese,F.
     Efficient time-dependent density functional theory approximations for hybrid density functionals: Analytical gradients and parallelization
     J. Chem. Phys., 2011 134 054116
     doi.org/10.1063/1.3533441
  5. Helmich-Paris,B.; de Souza,B.; Neese,F.; Izsák,R.
     An improved chain of spheres for exchange algorithm
     J. Chem. Phys., 2021 155 104109
     doi.org/doi: 10.1063/5.0058766.
  6. Neese,F.
     The SHARK Integral Generation and Digestion System
     J. Comp. Chem., 2022  1-16
     doi.org/10.1002/jcc.26942
  7. Lehtola,S.; Steigemann,C.; Oliveira,M.; Marques,M.
     Recent developments in Libxc - A comprehensive library of functionals for density functional theory
     Software X, 2018 7 
     doi.org/10.1016/j.softx.2017.11.002
  8. Grimme,S.; Antony,J.; Ehrlich,S.; Krieg,H.
     A consistent and accurate ab initio parametrization of density functional dispersion correction (DFT-D) for the 94 elements H-Pu
     J. Chem. Phys., 2010 132 154104-XXXX
     doi.org/10.1063/1.3382344
  9. Grimme,S.; Ehrlich,S.; Goerigk,L.
     Effect of the damping function in dispersion corrected density functional theory
     J. Comput. Chem., 2011 32(7)1456-1465
     doi.org/10.1002/jcc.21759

List of suggested additional citations. These are papers that are important in the 'surrounding' of 
of this run, or papers that preceded the highly important papers. If you like your results we are grateful for a citation.

  1. Izsak,R.; Neese,F.
     An overlap fitted chain of spheres exchange method
     J. Chem. Phys., 2011 135 144105
     doi.org/10.1063/1.3646921
  2. Izsak,R.; Hansen,A.; Neese,F.
     The resolution of identity and chain of spheres approximations for the LPNO-CCSD singles Fock term
     Molec. Phys., 2012 110 2413-2417
     doi.org/10.1080/00268976.2012.687466
  3. Neese,F.
     The ORCA program system
     WIRES Comput. Molec. Sci., 2012 2(1)73-78
     doi.org/10.1002/wcms.81
  4. Izsak,R.; Neese,F.; Klopper,W.
     Robust fitting techniques in the chain of spheres approximation to the Fock exchange: The role of the complementary space
     J. Chem. Phys., 2013 139 
     doi.org/10.1063/1.4819264
  5. Neese,F.
     Software update: the ORCA program system, version 4.0
     WIRES Comput. Molec. Sci., 2018 8(1)1-6
     doi.org/10.1002/wcms.1327
  6. Neese,F.; Wennmohs,F.; Becker,U.; Riplinger,C.
     The ORCA quantum chemistry program package
     J. Chem. Phys., 2020 152 Art. No. L224108
     doi.org/10.1063/5.0004608

List of optional additional citations

  1. Neese,F.
     Approximate second-order SCF convergence for spin unrestricted wavefunctions
     Chem. Phys. Lett., 2000 325(1-3)93-98
     doi.org/10.1016/s0009-2614(00)00662-x

Timings for individual modules:

Sum of individual times          ...       27.543 sec (=   0.459 min)
Startup calculation              ...        2.382 sec (=   0.040 min)   8.6 %
SCF iterations                   ...        9.245 sec (=   0.154 min)  33.6 %
Property integrals               ...        2.082 sec (=   0.035 min)   7.6 %
Property calculations            ...        1.611 sec (=   0.027 min)   5.8 %
CIS module                       ...       12.223 sec (=   0.204 min)  44.4 %
                             ****ORCA TERMINATED NORMALLY****
TOTAL RUN TIME: 0 days 0 hours 0 minutes 29 seconds 423 msec
