30
Properties=species:S:1:pos:R:3:momenta:R:3:forces:R:3 Coordinates=T from=T ORCA-job=T orca=T E=T -908.770417928441=T energy=-24728.118345561754 free_energy=-24728.118345561754 stress="1.7511898993385074e-06 -5.433741601445456e-07 2.860871755558158e-06 -5.433741601445456e-07 2.1346831321524535e-06 2.6848986697964097e-06 2.860871755558158e-06 2.6848986697964097e-06 5.829385324537264e-07" pbc="F F F"
O        3.52403896       0.34147612      -0.43245270       0.27126664      -0.18959924       0.78531734      -0.02605025       0.18344351       0.13146184
O       -1.28377963       1.99871311      -2.22533645      -0.67714647       1.05886486      -0.86110731       0.33894702       1.00308991      -0.76613009
O        0.78054304      -3.21894921      -0.71709086      -0.13618979       0.04612871      -0.42798804       0.48817831       1.66887004       0.75570599
O       -3.27894580      -1.56007091      -0.52656328      -0.41500275      -0.70555622      -0.19233102       0.17891201       0.35363796       0.27419807
N        0.11923815      -1.44851626       0.55668017       0.66430089       0.05514998       0.13704170       0.45108366       0.83135052       0.43683845
N       -2.16553517      -0.25289480       0.98173494       0.04148065       0.74309178       0.53845395       1.96739239       2.26329213      -0.49138622
N        2.10300065      -1.35763333      -0.59392657      -0.33510500      -0.26807700      -0.30412941       0.22142160      -1.26313768      -1.02375274
N       -2.10891652       0.15803352      -1.35085106      -0.36188609      -0.18060493      -0.40116978       0.01696211      -0.27555696       0.35342188
C        1.73188153       0.33655566       1.09330466      -0.52036036       0.31389479      -0.00281669      -0.61097259       0.02414648       0.62290640
C       -0.78658653       1.59831729       0.03288109       0.79152308      -0.52511912       0.04311538      -0.29587001       1.33117357       1.43487351
C        0.36423559      -0.25533532       1.37096019       1.30506779      -0.26027531      -0.17098424       0.15655843       0.04120054      -1.30013506
C       -0.98928586       0.73898357       1.20767746      -0.78550705       0.23739216      -0.03440785       0.17874721      -3.60367874      -1.90770710
C        2.47602477       1.12740289       2.21679441      -0.21838576      -0.22109115       0.35313528       0.19771651      -0.64494955      -3.92981623
C       -0.13037441       2.95571201       0.25265179       0.12485801       0.66798675       0.60686050      -0.42238150      -0.26173926      -3.37319361
C        2.48506434      -0.18681251      -0.04811698      -0.75829892      -0.45108764       0.42189466       1.15644308       1.35979233       0.66376170
C       -1.39263617       1.30201172      -1.25235428       0.18809002       0.49966078      -0.55117739       0.70257201       0.33120140       0.68150922
C        1.00166871      -2.07458628      -0.24743469       0.46023149      -0.37272875      -0.17110136      -0.95545504      -2.06464981      -0.85247226
C       -2.54820263      -0.60330292      -0.30670988      -0.46018225      -0.55550042       0.13634404      -0.99206843      -1.16040594       0.87797326
H        0.43046652      -0.58976276       2.37118481      -0.26764315      -0.11288817      -0.23058563      -0.44526460      -0.04130986       1.19743494
H       -1.04708654       1.22867699       2.12288294       0.18665000       0.04262687      -0.26535198      -0.45969121       0.87904759       1.13160177
H        2.91679219       2.05483969       1.80212230      -0.24216325       0.04971182      -0.17643543       0.07986706      -0.53847169       0.04319749
H        1.79960587       1.43254049       2.92907487      -0.10111728       0.13468098       0.10469558      -0.97363010       0.03302815       1.73633735
H        3.26806167       0.41636008       2.44034791       0.21502567      -0.15491293       0.37480174       0.11285331       0.42133865       0.85724692
H       -0.82790700       3.69636709      -0.32726214       0.33330075      -0.09750986       0.05658820       1.01278900      -0.66578679       1.25104366
H        0.16099377       3.26832688       1.24616674       0.25752372       0.21587976       0.10868770      -0.28082168      -0.23445652       0.07471332
H        0.76242991       2.92973148      -0.44310484       0.02825419       0.09056637      -0.11345738      -0.44104387       0.30811913       0.82473820
H       -0.59679767      -2.04800749       0.88357726       0.14212209       0.07743216       0.24514014      -0.44650033      -0.29986956       0.03984221
H       -2.70472305      -0.52852211       1.76726787      -0.02126069      -0.23594446       0.09383661      -0.36931782      -0.30200008       0.10021476
H        2.73951291      -1.87278292      -1.22483394       0.18715656       0.14648221      -0.29838647      -0.36986767       0.67827129       0.38464436
H       -2.55314396       0.04260632      -2.23694115       0.10339727      -0.04865479       0.19551715      -0.17150860      -0.35499076      -0.22907200
