
                                 *****************
                                 * O   R   C   A *
                                 *****************

                                            #,                                       
                                            ###                                      
                                            ####                                     
                                            #####                                    
                                            ######                                   
                                           ########,                                 
                                     ,,################,,,,,                         
                               ,,#################################,,                 
                          ,,##########################################,,             
                       ,#########################################, ''#####,          
                    ,#############################################,,   '####,        
                  ,##################################################,,,,####,       
                ,###########''''           ''''###############################       
              ,#####''   ,,,,##########,,,,          '''####'''          '####       
            ,##' ,,,,###########################,,,                        '##       
           ' ,,###''''                  '''############,,,                           
         ,,##''                                '''############,,,,        ,,,,,,###''
      ,#''                                            '''#######################'''  
     '                                                          ''''####''''         
             ,#######,   #######,   ,#######,      ##                                
            ,#'     '#,  ##    ##  ,#'     '#,    #''#        ,####,   ,####,        
            ##       ##  ##   ,#'  ##            #'  '#       #'       #'  '#        
            ##       ##  #######   ##           ,######,      #####,   #    #        
            '#,     ,#'  ##    ##  '#,     ,#' ,#      #,     #,   #   #,  ,#        
             '#######'   ##     ##  '#######'  #'      '#     '####' # '####'        



                #########################################################
                #                        -***-                          #
                #          Department of theory and spectroscopy        #
                #                                                       #
                #                      Frank Neese                      #
                #                                                       #
                #     Directorship, Architecture, Infrastructure        #
                #                    SHARK, DRIVERS                     #
                #        Core code/Algorithms in most modules           #
                #                                                       #
                #        Max Planck Institute fuer Kohlenforschung      #
                #                Kaiser Wilhelm Platz 1                 #
                #                 D-45470 Muelheim/Ruhr                 #
                #                      Germany                          #
                #                                                       #
                #                  All rights reserved                  #
                #                        -***-                          #
                #########################################################


                         Program Version 6.0.0  -   RELEASE  -


 With contributions from (in alphabetic order):
   Daniel Aravena         : Magnetic Suceptibility
   Michael Atanasov       : Ab Initio Ligand Field Theory (pilot matlab implementation)
   Alexander A. Auer      : GIAO ZORA, VPT2 properties, NMR spectrum
   Ute Becker             : All parallelization in ORCA, NUMFREQ, NUMCALC
   Giovanni Bistoni       : ED, misc. LED, open-shell LED, HFLD
   Martin Brehm           : Molecular dynamics
   Dmytro Bykov           : pre 5.0 version of the SCF Hessian
   Marcos Casanova-Páez   : Triplet and SCS-CIS(D). UHF-(DLPNO)-IP/EA/STEOM-CCSD. UHF-CVS-IP/STEOM-CCSD
   Vijay G. Chilkuri      : MRCI spin determinant printing, contributions to CSF-ICE
   Pauline Colinet        : FMM embedding
   Dipayan Datta          : RHF DLPNO-CCSD density
   Achintya Kumar Dutta   : EOM-CC, STEOM-CC
   Nicolas Foglia         : Exact transition moments, OPA infrastructure, MCD improvements
   Dmitry Ganyushin       : Spin-Orbit,Spin-Spin,Magnetic field MRCI
   Miquel Garcia          : C-PCM and meta-GGA Hessian, CCSD/C-PCM, Gaussian charge scheme
   Tiago L. C. Gouveia    : GS-ROHF, GS-ROCIS
   Yang Guo               : DLPNO-NEVPT2, F12-NEVPT2, CIM, IAO-localization
   Andreas Hansen         : Spin unrestricted coupled pair/coupled cluster methods
   Ingolf Harden          : AUTO-CI MPn and infrastructure 
   Benjamin Helmich-Paris : MC-RPA, TRAH-(SCF,CASSCF), AVAS, COSX integrals, SCF dyn. polar.
   Lee Huntington         : MR-EOM, pCC
   Robert Izsak           : Overlap fitted RIJCOSX, COSX-SCS-MP3, EOM
   Riya Kayal             : Wick's Theorem for AUTO-CI, AUTO-CI UHF-CCSDT
   Emily Kempfer          : AUTO-CI, RHF CISDT and CCSDT
   Christian Kollmar      : KDIIS, OOCD, Brueckner-CCSD(T), CCSD density, CASPT2, CASPT2-K, improved NEVPT2
   Axel Koslowski         : Symmetry handling
   Simone Kossmann        : Meta GGA functionals, TD-DFT gradient, OOMP2, (MP2 Hessian; deprecated post 5.0)
   Lucas Lang             : DCDCAS
   Marvin Lechner         : AUTO-CI (C++ implementation), FIC-MRCC
   Spencer Leger          : CASSCF response
   Dagmar Lenk            : GEPOL surface, SMD, ORCA-2-JSON
   Dimitrios Liakos       : Extrapolation schemes; Compound Job, initial MDCI parallelization
   Dimitrios Manganas     : Further ROCIS development; embedding schemes. LFT, Crystal Embedding
   Dimitrios Pantazis     : SARC Basis sets
   Anastasios Papadopoulos: AUTO-CI, single reference methods and gradients
   Taras Petrenko         : pre 6.0 DFT Hessian and TD-DFT gradient, (ASA, deprecated), ECA, 1-Electron XAS/XES, NRVS
   Peter Pinski           : DLPNO-MP2, DLPNO-MP2 Gradient
   Christoph Reimann      : Effective Core Potentials
   Marius Retegan         : Local ZFS, SOC
   Christoph Riplinger    : Optimizer, TS searches, QM/MM, DLPNO-CCSD(T), (RO)-DLPNO pert. Triples
   Michael Roemelt        : Original ROCIS implementation
   Masaaki Saitow         : Open-shell DLPNO-CCSD energy and density
   Barbara Sandhoefer     : DKH picture change effects
   Kantharuban Sivalingam : CASSCF convergence/infrastructure, NEVPT2 and variants, FIC-MRCI
   Bernardo de Souza      : ESD, SOC TD-DFT
   Georgi Stoychev        : AutoAux, RI-MP2 NMR, DLPNO-MP2 response, X2C
   Van Anh Tran           : RI-MP2 g-tensors
   Willem Van den Heuvel  : Paramagnetic NMR
   Zikuan Wang            : NOTCH, Electric field optimization 
   Frank Wennmohs         : Technical directorship and infrastructure
   Hang Xu                : AUTO-CI-Response properties 


 We gratefully acknowledge several colleagues who have allowed us to
 interface, adapt or use parts of their codes:
   Stefan Grimme, W. Hujo, H. Kruse, P. Pracht,  : VdW corrections, initial TS optimization,
                  C. Bannwarth, S. Ehlert,         DFT functionals, gCP, sTDA/sTD-DF
                  L. Wittmann, M. Mueller
   Ed Valeev, F. Pavosevic, A. Kumar             : LibInt (2-el integral package), F12 methods
   Garnet Chan, S. Sharma, J. Yang, R. Olivares  : DMRG
   Ulf Ekstrom                                   : XCFun DFT Library
   Mihaly Kallay                                 : mrcc  (arbitrary order and MRCC methods)
   Frank Weinhold                                : gennbo (NPA and NBO analysis)
   Simon Mueller                                 : openCOSMO-RS
   Christopher J. Cramer and Donald G. Truhlar   : smd solvation model
   Lars Goerigk                                  : TD-DFT with DH, B97 family of functionals
   V. Asgeirsson, H. Jonsson                     : NEB implementation
   FAccTs GmbH                                   : IRC, NEB, NEB-TS, DLPNO-Multilevel, CI-OPT
                                                   MM, QMMM, 2- and 3-layer-ONIOM, Crystal-QMMM,
                                                   LR-CPCM, SF, NACMEs, symmetry and pop. for TD-DFT,
                                                   nearIR, NL-DFT gradient (VV10), updates on ESD,
                                                   ML-optimized integration grids, MBIS, APM,
                                                   GOAT, DOCKER, SOLVATOR, interface openCOSMO-RS
   S Lehtola, MJT Oliveira, MAL Marques          : LibXC Library
   Liviu Ungur et al                             : ANISO software


 Your calculation uses the libint2 library for the computation of 2-el integrals
 For citations please refer to: http://libint.valeyev.net

 Your ORCA version has been built with support for libXC version: 6.2.2
 For citations please refer to: https://libxc.gitlab.io

 This ORCA versions uses:
   CBLAS   interface :  Fast vector & matrix operations
   LAPACKE interface :  Fast linear algebra routines
   SCALAPACK package :  Parallel linear algebra routines
   Shared memory     :  Shared parallel matrices
   BLAS/LAPACK       :  OpenBLAS 0.3.27  USE64BITINT DYNAMIC_ARCH NO_AFFINITY Zen SINGLE_THREADED
        Core in use  :  Zen
   Copyright (c) 2011-2014, The OpenBLAS Project


Your calculation utilizes the atom-pairwise dispersion correction
with the Becke-Johnson damping scheme (D3BJ)


Warning: RI is on but no J-basis has been assigned. Assigning Def2/J (nothing to worry about!)
================================================================================

----- Orbital basis set information -----
Your calculation utilizes the basis: def2-TZVPPD
   F. Weigend and R. Ahlrichs, Phys. Chem. Chem. Phys. 7, 3297 (2005).
   D. Rappoport and F. Furche, J. Chem. Phys. 133, 134105 (2010)
   D. Rappoport, J. Chem. Phys. 155, 124102 (2021).

----- AuxJ basis set information -----
Your calculation utilizes the auxiliary basis: def2/J
   F. Weigend, Phys. Chem. Chem. Phys. 8, 1057 (2006).

================================================================================
                                        WARNINGS
                       Please study these warnings very carefully!
================================================================================

Using LibXC functional ID 531 : wB97M-V exchange-correlation functional
[ 1]  N. Mardirossian and M. Head-Gordon.,  J. Chem. Phys. 144, 214110 (2016)
Using LibXC functional ID 531 : wB97M-V exchange-correlation functional
[ 1]  N. Mardirossian and M. Head-Gordon.,  J. Chem. Phys. 144, 214110 (2016)

WARNING: B97M-V or wB97M-V functional requested.
  ===> : libXC variant has now been activated.
         Any manually given DFX/HFX/RangeSep scaling parameters are IGNORED!

Your calculation utilizes LibXC
 by S Lehtola, C Steigemann, MJT Oliveira & MAL Marques
Please cite in your paper:
 S Lehtola, C Steigemann, MJT Oliveira & MAL Marques, SoftwareX, 7, (2018), 1.
   


WARNING: your system is open-shell and RHF/RKS was chosen
  ===> : WILL SWITCH to UHF/UKS

INFO   : Checking CIS options ...

WARNING: CIS/ROCIS methods need fully converged wavefunctions
  ===> : Setting SCFConvForced true
         You can overwrite this default with %scf ConvForced false 


================================================================================
                                       INPUT FILE
================================================================================
NAME = orca.inp
|  1> ! Engrad def2-TZVPPD wB97M-D3BJ 
|  2> %pal nprocs 8 end%pal nprocs 64 end 
|  3> %tddft Nroots 2 Iroot 2 
|  4> sf true 
|  5> end 
|  6> *xyz 0 3 
|  7> O   2.81256611 1.29114899 -0.56370865
|  8> O   -0.51974709 0.48881336 -1.98494433
|  9> O   1.32153862 -2.82436259 -1.68217023
| 10> O   -3.00534811 -1.48184222 1.20079119
| 11> N   0.64398322 -1.98791178 0.32539978
| 12> N   -2.24610893 0.60848807 1.62947306
| 13> N   2.08180115 -0.81138187 -1.04026921
| 14> N   -1.91550921 -0.3406641 -0.41545387
| 15> C   1.41910695 0.21119977 0.99290645
| 16> C   -0.83078683 1.72083459 0.04679272
| 17> C   0.67256087 -0.94539988 1.24550188
| 18> C   -1.45180857 1.6648448 1.23069105
| 19> C   1.52132968 1.31965645 2.01824034
| 20> C   0.0087458 2.85786743 -0.39426853
| 21> C   2.11975724 0.32613439 -0.2344459
| 22> C   -0.99710006 0.61652764 -0.87965305
| 23> C   1.36964683 -1.9498178 -0.85054894
| 24> C   -2.42923793 -0.47941492 0.82935684
| 25> H   0.06321717 -1.05979299 2.01692801
| 26> H   -1.41774066 2.47674876 1.90373167
| 27> H   1.41770039 2.28203375 1.49399249
| 28> H   0.79138222 1.14387396 2.81906393
| 29> H   2.53679477 1.27875075 2.44328954
| 30> H   -0.22532552 3.2631195 -1.35584102
| 31> H   -0.0358846 3.68666519 0.32722772
| 32> H   1.06569675 2.52976774 -0.51014397
| 33> H   0.09044655 -2.78727749 0.48000902
| 34> H   -2.73879813 0.6136779 2.50874217
| 35> H   2.58671814 -0.76485247 -1.90960177
| 36> H   -1.89675941 -1.16163249 -0.99812274
| 37> *
| 38> 
| 39>                          ****END OF INPUT****
================================================================================

                     *******************************
                     * Energy+Gradient Calculation *
                     *******************************

---------------------------------
CARTESIAN COORDINATES (ANGSTROEM)
---------------------------------
  O      2.812566    1.291149   -0.563709
  O     -0.519747    0.488813   -1.984944
  O      1.321539   -2.824363   -1.682170
  O     -3.005348   -1.481842    1.200791
  N      0.643983   -1.987912    0.325400
  N     -2.246109    0.608488    1.629473
  N      2.081801   -0.811382   -1.040269
  N     -1.915509   -0.340664   -0.415454
  C      1.419107    0.211200    0.992906
  C     -0.830787    1.720835    0.046793
  C      0.672561   -0.945400    1.245502
  C     -1.451809    1.664845    1.230691
  C      1.521330    1.319656    2.018240
  C      0.008746    2.857867   -0.394269
  C      2.119757    0.326134   -0.234446
  C     -0.997100    0.616528   -0.879653
  C      1.369647   -1.949818   -0.850549
  C     -2.429238   -0.479415    0.829357
  H      0.063217   -1.059793    2.016928
  H     -1.417741    2.476749    1.903732
  H      1.417700    2.282034    1.493992
  H      0.791382    1.143874    2.819064
  H      2.536795    1.278751    2.443290
  H     -0.225326    3.263119   -1.355841
  H     -0.035885    3.686665    0.327228
  H      1.065697    2.529768   -0.510144
  H      0.090447   -2.787277    0.480009
  H     -2.738798    0.613678    2.508742
  H      2.586718   -0.764852   -1.909602
  H     -1.896759   -1.161632   -0.998123

----------------------------
CARTESIAN COORDINATES (A.U.)
----------------------------
  NO LB      ZA    FRAG     MASS         X           Y           Z
   0 O     8.0000    0    15.999    5.314980    2.439918   -1.065255
   1 O     8.0000    0    15.999   -0.982180    0.923723   -3.751001
   2 O     8.0000    0    15.999    2.497346   -5.337272   -3.178841
   3 O     8.0000    0    15.999   -5.679285   -2.800276    2.269166
   4 N     7.0000    0    14.007    1.216952   -3.756609    0.614916
   5 N     7.0000    0    14.007   -4.244531    1.149876    3.079258
   6 N     7.0000    0    14.007    3.934034   -1.533290   -1.965824
   7 N     7.0000    0    14.007   -3.619788   -0.643762   -0.785094
   8 C     6.0000    0    12.011    2.681723    0.399110    1.876321
   9 C     6.0000    0    12.011   -1.569960    3.251906    0.088425
  10 C     6.0000    0    12.011    1.270956   -1.786547    2.353657
  11 C     6.0000    0    12.011   -2.743521    3.146101    2.325669
  12 C     6.0000    0    12.011    2.874896    2.493789    3.813922
  13 C     6.0000    0    12.011    0.016527    5.400587   -0.745060
  14 C     6.0000    0    12.011    4.005761    0.616305   -0.443039
  15 C     6.0000    0    12.011   -1.884246    1.165068   -1.662303
  16 C     6.0000    0    12.011    2.588257   -3.684622   -1.607305
  17 C     6.0000    0    12.011   -4.590594   -0.905963    1.567257
  18 H     1.0000    0     1.008    0.119463   -2.002719    3.811442
  19 H     1.0000    0     1.008   -2.679142    4.680377    3.597531
  20 H     1.0000    0     1.008    2.679065    4.312419    2.823237
  21 H     1.0000    0     1.008    1.495496    2.161609    5.327259
  22 H     1.0000    0     1.008    4.793847    2.416489    4.617148
  23 H     1.0000    0     1.008   -0.425804    6.166402   -2.562168
  24 H     1.0000    0     1.008   -0.067812    6.966788    0.618371
  25 H     1.0000    0     1.008    2.013875    4.780568   -0.964032
  26 H     1.0000    0     1.008    0.170919   -5.267191    0.907086
  27 H     1.0000    0     1.008   -5.175578    1.159683    4.740836
  28 H     1.0000    0     1.008    4.888189   -1.445362   -3.608624
  29 H     1.0000    0     1.008   -3.584356   -2.195167   -1.886179

--------------------------------
INTERNAL COORDINATES (ANGSTROEM)
--------------------------------
 O      0   0   0     0.000000000000     0.00000000     0.00000000
 O      1   0   0     3.710520796892     0.00000000     0.00000000
 O      2   1   0     3.802517599846    73.92090562     0.00000000
 O      2   1   3     4.495620830208   108.65675100    73.45581198
 N      3   2   1     2.277952726171    66.80910803    72.95424129
 N      4   2   1     2.264882557530    62.88459320    59.55534343
 N      3   2   1     2.245468194629    53.53093316     2.42026105
 N      2   1   3     2.258203944799   111.61075913    78.50020677
 C      1   2   3     2.351822552387    67.79727227   287.70550295
 C      8   2   1     2.374883449879    62.23295006    52.49444847
 C      5   3   2     1.390767995801   148.45032629   302.00632779
 C     10   8   2     1.338065063408    85.63594372   182.03932381
 C      9   1   2     1.513418410073    94.13308270   236.79083160
 C     10   8   2     1.480605870016   150.18288935     8.28457245
 C      1   2   3     1.232741362615    55.13203323   318.39994358
 C      2   1   3     1.210721111127    88.94570772   102.94610419
 C      3   2   1     1.207781834425    56.16551286    40.12604318
 C      4   2   1     1.214383344601    32.76675230    64.79251937
 H     11   5   3     0.989688740156   114.60644228   173.64433354
 H     12  10   8     1.055145648205   121.14394530   187.44803082
 H     13   9   1     1.100792853143   108.13823581    43.86807603
 H     13   9   1     1.097743686136   109.39315056   169.97178003
 H     13   9   1     1.101594048514   107.24614039   288.04762245
 H     14  10   8     1.069411182198   115.76994332    43.78997472
 H     14  10   8     1.099751989473   111.11867157   166.34734850
 H     14  10   8     1.112754166417   110.07023684   287.45788244
 H      5   3   2     0.984526485399    90.42947332   119.35873299
 H      6   4   2     1.007910586278    90.34401384   177.09865957
 H      7   3   2     1.006402132217    87.95875439   261.93839702
 H      8   2   1     1.006898040740    83.44193437   242.72272954

---------------------------
INTERNAL COORDINATES (A.U.)
---------------------------
 O      0   0   0     0.000000000000     0.00000000     0.00000000
 O      1   0   0     7.011868120345     0.00000000     0.00000000
 O      2   1   0     7.185716883125    73.92090562     0.00000000
 O      2   1   3     8.495492171045   108.65675100    73.45581198
 N      3   2   1     4.304706798483    66.80910803    72.95424129
 N      4   2   1     4.280007759228    62.88459320    59.55534343
 N      3   2   1     4.243319930280    53.53093316     2.42026105
 N      2   1   3     4.267387010211   111.61075913    78.50020677
 C      1   2   3     4.444300539590    67.79727227   287.70550295
 C      8   2   1     4.487879320254    62.23295006    52.49444847
 C      5   3   2     2.628170627887   148.45032629   302.00632779
 C     10   8   2     2.528576519210    85.63594372   182.03932381
 C      9   1   2     2.859946321072    94.13308270   236.79083160
 C     10   8   2     2.797939606606   150.18288935     8.28457245
 C      1   2   3     2.329543569299    55.13203323   318.39994358
 C      2   1   3     2.287931324586    88.94570772   102.94610419
 C      3   2   1     2.282376896588    56.16551286    40.12604318
 C      4   2   1     2.294851942892    32.76675230    64.79251937
 H     11   5   3     1.870240676721   114.60644228   173.64433354
 H     12  10   8     1.993936306506   121.14394530   187.44803082
 H     13   9   1     2.080197022618   108.13823581    43.86807603
 H     13   9   1     2.074434932038   109.39315056   169.97178003
 H     13   9   1     2.081711062449   107.24614039   288.04762245
 H     14  10   8     2.020894258908   115.76994332    43.78997472
 H     14  10   8     2.078230075339   111.11867157   166.34734850
 H     14  10   8     2.102800628909   110.07023684   287.45788244
 H      5   3   2     1.860485428996    90.42947332   119.35873299
 H      6   4   2     1.904674975546    90.34401384   177.09865957
 H      7   3   2     1.901824410485    87.95875439   261.93839702
 H      8   2   1     1.902761541781    83.44193437   242.72272954

---------------------
BASIS SET INFORMATION
---------------------
There are 4 groups of distinct atoms

 Group   1 Type O   : 12s7p3d1f contracted to 6s4p3d1f pattern {621111/4111/111/1}
 Group   2 Type N   : 12s6p3d1f contracted to 6s3p3d1f pattern {621111/411/111/1}
 Group   3 Type C   : 12s6p3d1f contracted to 6s3p3d1f pattern {621111/411/111/1}
 Group   4 Type H   : 5s3p1d contracted to 3s3p1d pattern {311/111/1}

Atom   0O    basis set group =>   1
Atom   1O    basis set group =>   1
Atom   2O    basis set group =>   1
Atom   3O    basis set group =>   1
Atom   4N    basis set group =>   2
Atom   5N    basis set group =>   2
Atom   6N    basis set group =>   2
Atom   7N    basis set group =>   2
Atom   8C    basis set group =>   3
Atom   9C    basis set group =>   3
Atom  10C    basis set group =>   3
Atom  11C    basis set group =>   3
Atom  12C    basis set group =>   3
Atom  13C    basis set group =>   3
Atom  14C    basis set group =>   3
Atom  15C    basis set group =>   3
Atom  16C    basis set group =>   3
Atom  17C    basis set group =>   3
Atom  18H    basis set group =>   4
Atom  19H    basis set group =>   4
Atom  20H    basis set group =>   4
Atom  21H    basis set group =>   4
Atom  22H    basis set group =>   4
Atom  23H    basis set group =>   4
Atom  24H    basis set group =>   4
Atom  25H    basis set group =>   4
Atom  26H    basis set group =>   4
Atom  27H    basis set group =>   4
Atom  28H    basis set group =>   4
Atom  29H    basis set group =>   4
---------------------------------
AUXILIARY/J BASIS SET INFORMATION
---------------------------------
There are 4 groups of distinct atoms

 Group   1 Type O   : 12s5p4d2f1g contracted to 6s4p3d1f1g pattern {711111/2111/211/2/1}
 Group   2 Type N   : 12s5p4d2f1g contracted to 6s4p3d1f1g pattern {711111/2111/211/2/1}
 Group   3 Type C   : 12s5p4d2f1g contracted to 6s4p3d1f1g pattern {711111/2111/211/2/1}
 Group   4 Type H   : 5s2p1d contracted to 3s1p1d pattern {311/2/1}

Atom   0O    basis set group =>   1
Atom   1O    basis set group =>   1
Atom   2O    basis set group =>   1
Atom   3O    basis set group =>   1
Atom   4N    basis set group =>   2
Atom   5N    basis set group =>   2
Atom   6N    basis set group =>   2
Atom   7N    basis set group =>   2
Atom   8C    basis set group =>   3
Atom   9C    basis set group =>   3
Atom  10C    basis set group =>   3
Atom  11C    basis set group =>   3
Atom  12C    basis set group =>   3
Atom  13C    basis set group =>   3
Atom  14C    basis set group =>   3
Atom  15C    basis set group =>   3
Atom  16C    basis set group =>   3
Atom  17C    basis set group =>   3
Atom  18H    basis set group =>   4
Atom  19H    basis set group =>   4
Atom  20H    basis set group =>   4
Atom  21H    basis set group =>   4
Atom  22H    basis set group =>   4
Atom  23H    basis set group =>   4
Atom  24H    basis set group =>   4
Atom  25H    basis set group =>   4
Atom  26H    basis set group =>   4
Atom  27H    basis set group =>   4
Atom  28H    basis set group =>   4
Atom  29H    basis set group =>   4
[1739919126.389761] [ohm:562406:0]        ib_iface.c:1059 UCX  ERROR ibv_create_cq(cqe=256) failed: Connection timed out
[1739919126.390975] [ohm:562404:0]        ib_iface.c:1059 UCX  ERROR ibv_create_cq(cqe=256) failed: Connection timed out
[1739919126.418818] [ohm:562407:0]        ib_iface.c:1059 UCX  ERROR ibv_create_cq(cqe=256) failed: Connection timed out
[1739919126.440187] [ohm:562412:0]        ib_iface.c:1059 UCX  ERROR ibv_create_cq(cqe=256) failed: Connection timed out
[1739919126.444013] [ohm:562417:0]        ib_iface.c:1059 UCX  ERROR ibv_create_cq(cqe=256) failed: Connection timed out
[1739919126.448599] [ohm:562419:0]        ib_iface.c:1059 UCX  ERROR ibv_create_cq(cqe=256) failed: Connection timed out
[1739919126.454820] [ohm:562425:0]        ib_iface.c:1059 UCX  ERROR ibv_create_cq(cqe=256) failed: Connection timed out
[1739919126.457424] [ohm:562526:0]        ib_iface.c:1059 UCX  ERROR ibv_create_cq(cqe=256) failed: Connection timed out
[1739919126.463441] [ohm:562420:0]        ib_iface.c:1059 UCX  ERROR ibv_create_cq(cqe=256) failed: Connection timed out
[1739919126.463482] [ohm:562540:0]        ib_iface.c:1059 UCX  ERROR ibv_create_cq(cqe=256) failed: Connection timed out
[1739919126.477562] [ohm:562533:0]        ib_iface.c:1059 UCX  ERROR ibv_create_cq(cqe=256) failed: Connection timed out
[1739919126.479233] [ohm:562514:0]        ib_iface.c:1059 UCX  ERROR ibv_create_cq(cqe=256) failed: Connection timed out
[1739919126.479753] [ohm:562541:0]        ib_iface.c:1059 UCX  ERROR ibv_create_cq(cqe=256) failed: Connection timed out
[1739919126.487128] [ohm:562415:0]        ib_iface.c:1059 UCX  ERROR ibv_create_cq(cqe=256) failed: Connection timed out
[1739919126.507014] [ohm:562466:0]        ib_iface.c:1059 UCX  ERROR ibv_create_cq(cqe=256) failed: Connection timed out
[1739919126.509474] [ohm:562508:0]        ib_iface.c:1059 UCX  ERROR ibv_create_cq(cqe=256) failed: Connection timed out
[1739919126.518671] [ohm:562424:0]        ib_iface.c:1059 UCX  ERROR ibv_create_cq(cqe=256) failed: Connection timed out
[1739919126.518825] [ohm:562430:0]        ib_iface.c:1059 UCX  ERROR ibv_create_cq(cqe=256) failed: Connection timed out
[1739919126.522641] [ohm:562485:0]        ib_iface.c:1059 UCX  ERROR ibv_create_cq(cqe=256) failed: Connection timed out
[1739919126.542939] [ohm:562439:0]        ib_iface.c:1059 UCX  ERROR ibv_create_cq(cqe=256) failed: Connection timed out
[1739919126.550609] [ohm:562512:0]        ib_iface.c:1059 UCX  ERROR ibv_create_cq(cqe=256) failed: Connection timed out
[1739919126.552378] [ohm:562431:0]        ib_iface.c:1059 UCX  ERROR ibv_create_cq(cqe=256) failed: Connection timed out
[1739919126.587423] [ohm:562429:0]        ib_iface.c:1059 UCX  ERROR ibv_create_cq(cqe=256) failed: Connection timed out
[1739919126.603026] [ohm:562408:0]        ib_iface.c:1059 UCX  ERROR ibv_create_cq(cqe=256) failed: Connection timed out
[1739919126.609969] [ohm:562476:0]        ib_iface.c:1059 UCX  ERROR ibv_create_cq(cqe=256) failed: Connection timed out
[1739919126.616242] [ohm:562418:0]        ib_iface.c:1059 UCX  ERROR ibv_create_cq(cqe=256) failed: Connection timed out
[1739919126.617459] [ohm:562492:0]        ib_iface.c:1059 UCX  ERROR ibv_create_cq(cqe=256) failed: Connection timed out
[1739919126.640490] [ohm:562410:0]        ib_iface.c:1059 UCX  ERROR ibv_create_cq(cqe=256) failed: Connection timed out
[1739919126.641734] [ohm:562447:0]        ib_iface.c:1059 UCX  ERROR ibv_create_cq(cqe=256) failed: Connection timed out
[1739919126.643640] [ohm:562455:0]        ib_iface.c:1059 UCX  ERROR ibv_create_cq(cqe=256) failed: Connection timed out
[1739919126.644385] [ohm:562405:0]        ib_iface.c:1059 UCX  ERROR ibv_create_cq(cqe=256) failed: Connection timed out
[1739919126.648021] [ohm:562499:0]        ib_iface.c:1059 UCX  ERROR ibv_create_cq(cqe=256) failed: Connection timed out
[1739919126.659438] [ohm:562409:0]        ib_iface.c:1059 UCX  ERROR ibv_create_cq(cqe=256) failed: Connection timed out
[1739919126.661019] [ohm:562432:0]        ib_iface.c:1059 UCX  ERROR ibv_create_cq(cqe=256) failed: Connection timed out
[1739919126.666627] [ohm:562520:0]        ib_iface.c:1059 UCX  ERROR ibv_create_cq(cqe=256) failed: Connection timed out
[1739919126.675716] [ohm:562470:0]        ib_iface.c:1059 UCX  ERROR ibv_create_cq(cqe=256) failed: Connection timed out
[1739919126.675730] [ohm:562496:0]        ib_iface.c:1059 UCX  ERROR ibv_create_cq(cqe=256) failed: Connection timed out
[1739919126.675772] [ohm:562486:0]        ib_iface.c:1059 UCX  ERROR ibv_create_cq(cqe=256) failed: Connection timed out
[1739919126.678502] [ohm:562427:0]        ib_iface.c:1059 UCX  ERROR ibv_create_cq(cqe=256) failed: Connection timed out
[1739919126.683135] [ohm:562428:0]        ib_iface.c:1059 UCX  ERROR ibv_create_cq(cqe=256) failed: Connection timed out
[1739919126.689178] [ohm:562531:0]        ib_iface.c:1059 UCX  ERROR ibv_create_cq(cqe=256) failed: Connection timed out
[1739919126.691078] [ohm:562450:0]        ib_iface.c:1059 UCX  ERROR ibv_create_cq(cqe=256) failed: Connection timed out
[1739919126.693287] [ohm:562481:0]        ib_iface.c:1059 UCX  ERROR ibv_create_cq(cqe=256) failed: Connection timed out
[1739919126.695968] [ohm:562548:0]        ib_iface.c:1059 UCX  ERROR ibv_create_cq(cqe=256) failed: Connection timed out
[1739919126.696685] [ohm:562506:0]        ib_iface.c:1059 UCX  ERROR ibv_create_cq(cqe=256) failed: Connection timed out
[1739919126.702345] [ohm:562416:0]        ib_iface.c:1059 UCX  ERROR ibv_create_cq(cqe=256) failed: Connection timed out
[1739919126.703540] [ohm:562426:0]        ib_iface.c:1059 UCX  ERROR ibv_create_cq(cqe=256) failed: Connection timed out
[1739919126.704637] [ohm:562413:0]        ib_iface.c:1059 UCX  ERROR ibv_create_cq(cqe=256) failed: Connection timed out
[1739919126.709601] [ohm:562423:0]        ib_iface.c:1059 UCX  ERROR ibv_create_cq(cqe=256) failed: Connection timed out
[1739919126.715068] [ohm:562435:0]        ib_iface.c:1059 UCX  ERROR ibv_create_cq(cqe=256) failed: Connection timed out
[1739919126.718207] [ohm:562442:0]        ib_iface.c:1059 UCX  ERROR ibv_create_cq(cqe=256) failed: Connection timed out
[1739919126.722094] [ohm:562422:0]        ib_iface.c:1059 UCX  ERROR ibv_create_cq(cqe=256) failed: Connection timed out
[1739919126.725213] [ohm:562414:0]        ib_iface.c:1059 UCX  ERROR ibv_create_cq(cqe=256) failed: Connection timed out
[1739919126.726464] [ohm:562522:0]        ib_iface.c:1059 UCX  ERROR ibv_create_cq(cqe=256) failed: Connection timed out
[1739919126.735073] [ohm:562421:0]        ib_iface.c:1059 UCX  ERROR ibv_create_cq(cqe=256) failed: Connection timed out
[1739919126.735823] [ohm:562501:0]        ib_iface.c:1059 UCX  ERROR ibv_create_cq(cqe=256) failed: Connection timed out
[1739919126.735907] [ohm:562490:0]        ib_iface.c:1059 UCX  ERROR ibv_create_cq(cqe=256) failed: Connection timed out
[1739919126.736343] [ohm:562463:0]        ib_iface.c:1059 UCX  ERROR ibv_create_cq(cqe=256) failed: Connection timed out
[1739919126.737079] [ohm:562472:0]        ib_iface.c:1059 UCX  ERROR ibv_create_cq(cqe=256) failed: Connection timed out
[1739919126.737505] [ohm:562411:0]        ib_iface.c:1059 UCX  ERROR ibv_create_cq(cqe=256) failed: Connection timed out
[1739919126.737622] [ohm:562544:0]        ib_iface.c:1059 UCX  ERROR ibv_create_cq(cqe=256) failed: Connection timed out
[1739919126.737846] [ohm:562461:0]        ib_iface.c:1059 UCX  ERROR ibv_create_cq(cqe=256) failed: Connection timed out
[1739919126.738088] [ohm:562537:0]        ib_iface.c:1059 UCX  ERROR ibv_create_cq(cqe=256) failed: Connection timed out
[1739919126.738436] [ohm:562457:0]        ib_iface.c:1059 UCX  ERROR ibv_create_cq(cqe=256) failed: Connection timed out


           ************************************************************
           *        Program running with 64 parallel MPI-processes    *
           *              working on a common directory               *
           ************************************************************
------------------------------------------------------------------------------
                             ORCA STARTUP CALCULATIONS
                           -- RI-GTO INTEGRALS CHOSEN --
------------------------------------------------------------------------------
------------------------------------------------------------------------------
                   ___                                                        
                  /   \      - P O W E R E D   B Y -                         
                 /     \                                                     
                 |  |  |   _    _      __       _____    __    __             
                 |  |  |  | |  | |    /  \     |  _  \  |  |  /  |          
                  \  \/   | |  | |   /    \    | | | |  |  | /  /          
                 / \  \   | |__| |  /  /\  \   | |_| |  |  |/  /          
                |  |  |   |  __  | /  /__\  \  |    /   |      \           
                |  |  |   | |  | | |   __   |  |    \   |  |\   \          
                \     /   | |  | | |  |  |  |  | |\  \  |  | \   \       
                 \___/    |_|  |_| |__|  |__|  |_| \__\ |__|  \__/        
                                                                              
                      - O R C A' S   B I G   F R I E N D -                    
                                      &                                       
                       - I N T E G R A L  F E E D E R -                       
                                                                              
 v1 FN, 2020, v2 2021, v3 2022-2024                                           
------------------------------------------------------------------------------


----------------------
SHARK INTEGRAL PACKAGE
----------------------

Number of atoms                             ...     30
Number of basis functions                   ...    882
Number of shells                            ...    322
Maximum angular momentum                    ...      3
Integral batch strategy                     ... SHARK/LIBINT Hybrid
RI-J (if used) integral strategy            ... SPLIT-RIJ (Revised 2003 algorithm where possible)
Printlevel                                  ...      1
Contraction scheme used                     ... SEGMENTED contraction
Prescreening option                         ... SCHWARTZ
   Thresh                                   ... 2.500e-11
   Tcut                                     ... 2.500e-12
   Tpresel                                  ... 2.500e-12 
Coulomb Range Separation                    ... NOT USED
Exchange Range Separation                   ... Long Range
   Mu parameter                             ... 3.000e-01
   Scaling (regular/separated)              ... 1.500e-01 8.500e-01
Multipole approximations                    ... NOT USED
Finite Nucleus Model                        ... NOT USED
CABS basis                                  ... NOT available
Auxiliary Coulomb fitting basis             ... AVAILABLE
   # of basis functions in Aux-J            ...   1014
   # of shells in Aux-J                     ...    330
   Maximum angular momentum in Aux-J        ...      4
Auxiliary J/K fitting basis                 ... NOT available
Auxiliary Correlation fitting basis         ... NOT available
Auxiliary 'external' fitting basis          ... NOT available

Checking pre-screening integrals            ... done (  0.0 sec) Dimension = 322
Check shell pair data                       ... done (  0.0 sec)
Shell pair information
Shell pair cut-off parameter TPreSel        ...   2.5e-12
Total number of shell pairs                 ...     52003
Shell pairs after pre-screening             ...     45361
Total number of primitive shell pairs       ...    129718
Primitive shell pairs kept                  ...     84903
          la=0 lb=0:   8766 shell pairs
          la=1 lb=0:  12001 shell pairs
          la=1 lb=1:   4139 shell pairs
          la=2 lb=0:   8160 shell pairs
          la=2 lb=1:   5635 shell pairs
          la=2 lb=2:   1948 shell pairs
          la=3 lb=0:   2078 shell pairs
          la=3 lb=1:   1483 shell pairs
          la=3 lb=2:   1009 shell pairs
          la=3 lb=3:    142 shell pairs

Calculating one electron integrals          ... done (  0.2 sec)
Calculating RI/J V-Matrix + Cholesky decomp.... done (  0.1 sec)
Calculating Nuclear repulsion               ... done (  0.0 sec) ENN=   1450.542879825839 Eh

Diagonalization of the overlap matrix:
Smallest eigenvalue                        ... 4.774e-07
Time for diagonalization                   ...    0.125 sec
Threshold for overlap eigenvalues          ... 1.000e-07
Number of eigenvalues below threshold      ... 0

IMPORTANT:
Smallest eigenvalue of S below the DiffSThresh (1.000e-06) while
Thresh>1e-12 and/or TCut>1e-13! In order to avoid SCF convergence issues,
Thresh will be set to at least 1e-12 and TCut to at least 1e-13.
This can be turned off by adding %SCF DiffSThresh -1 END to the input.

Time for construction of square roots      ...    0.141 sec
Total time needed                          ...    0.281 sec

-------------------
DFT GRID GENERATION
-------------------

General Integration Accuracy     IntAcc      ... 4.388
Radial Grid Type                 RadialGrid  ... OptM3 with GC (2021)
Angular Grid (max. ang.)         AngularGrid ... 4 (Lebedev-302)
Angular grid pruning method      GridPruning ... 4 (adaptive)
Weight generation scheme         WeightScheme... mBecke (2022)
Basis function cutoff            BFCut       ... 1.0000e-11
Integration weight cutoff        WCut        ... 1.0000e-14
Partially contracted basis set               ... off
Rotationally invariant grid construction     ... off
Angular grids for H and He will be reduced by one unit
Diffuse basis detected: some atoms will have their outermost
                        angular grid increased by 1.

Total number of grid points                  ...   151897
Total number of batches                      ...     2389
Average number of points per batch           ...       63
Average number of grid points per atom       ...     5063

--------------------
COSX GRID GENERATION
--------------------

GRIDX 1
-------
General Integration Accuracy     IntAcc      ... 3.816
Radial Grid Type                 RadialGrid  ... OptM3 with GC (2021)
Angular Grid (max. ang.)         AngularGrid ... 1 (Lebedev-50)
Angular grid pruning method      GridPruning ... 4 (adaptive)
Weight generation scheme         WeightScheme... mBecke (2022)
Basis function cutoff            BFCut       ... 1.0000e-11
Integration weight cutoff        WCut        ... 1.0000e-14
Partially contracted basis set               ... on
Rotationally invariant grid construction     ... off
Angular grids for H and He will be reduced by one unit
Diffuse basis detected: some atoms will have their outermost
                        angular grid increased by 1.

Total number of grid points                  ...    18992
Total number of batches                      ...      164
Average number of points per batch           ...      115
Average number of grid points per atom       ...      633
UseSFitting                                  ... on

GRIDX 2
-------
General Integration Accuracy     IntAcc      ... 4.020
Radial Grid Type                 RadialGrid  ... OptM3 with GC (2021)
Angular Grid (max. ang.)         AngularGrid ... 2 (Lebedev-110)
Angular grid pruning method      GridPruning ... 4 (adaptive)
Weight generation scheme         WeightScheme... mBecke (2022)
Basis function cutoff            BFCut       ... 1.0000e-11
Integration weight cutoff        WCut        ... 1.0000e-14
Partially contracted basis set               ... on
Rotationally invariant grid construction     ... off
Angular grids for H and He will be reduced by one unit
Diffuse basis detected: some atoms will have their outermost
                        angular grid increased by 1.

Total number of grid points                  ...    45823
Total number of batches                      ...      373
Average number of points per batch           ...      122
Average number of grid points per atom       ...     1527
UseSFitting                                  ... on

GRIDX 3
-------
General Integration Accuracy     IntAcc      ... 4.338
Radial Grid Type                 RadialGrid  ... OptM3 with GC (2021)
Angular Grid (max. ang.)         AngularGrid ... 3 (Lebedev-194)
Angular grid pruning method      GridPruning ... 4 (adaptive)
Weight generation scheme         WeightScheme... mBecke (2022)
Basis function cutoff            BFCut       ... 1.0000e-11
Integration weight cutoff        WCut        ... 1.0000e-14
Partially contracted basis set               ... on
Rotationally invariant grid construction     ... off
Angular grids for H and He will be reduced by one unit
Diffuse basis detected: some atoms will have their outermost
                        angular grid increased by 1.

Total number of grid points                  ...   100821
Total number of batches                      ...      800
Average number of points per batch           ...      126
Average number of grid points per atom       ...     3361
UseSFitting                                  ... on
Initializing property integral containers    ... done (  0.0 sec)

SHARK setup successfully completed in   4.2 seconds

Maximum memory used throughout the entire STARTUP-calculation: 80.5 MB
[1739919132.757578] [ohm:562826:0]        ib_iface.c:1059 UCX  ERROR ibv_create_cq(cqe=256) failed: Connection timed out
[1739919132.759037] [ohm:562825:0]        ib_iface.c:1059 UCX  ERROR ibv_create_cq(cqe=256) failed: Connection timed out
[1739919132.776645] [ohm:562824:0]        ib_iface.c:1059 UCX  ERROR ibv_create_cq(cqe=256) failed: Connection timed out
[1739919132.813925] [ohm:562844:0]        ib_iface.c:1059 UCX  ERROR ibv_create_cq(cqe=256) failed: Connection timed out
[1739919132.819545] [ohm:562823:0]        ib_iface.c:1059 UCX  ERROR ibv_create_cq(cqe=256) failed: Connection timed out
[1739919132.822742] [ohm:562860:0]        ib_iface.c:1059 UCX  ERROR ibv_create_cq(cqe=256) failed: Connection timed out
[1739919132.839673] [ohm:562879:0]        ib_iface.c:1059 UCX  ERROR ibv_create_cq(cqe=256) failed: Connection timed out
[1739919132.842590] [ohm:562855:0]        ib_iface.c:1059 UCX  ERROR ibv_create_cq(cqe=256) failed: Connection timed out
[1739919132.847453] [ohm:562849:0]        ib_iface.c:1059 UCX  ERROR ibv_create_cq(cqe=256) failed: Connection timed out
[1739919132.849887] [ohm:562905:0]        ib_iface.c:1059 UCX  ERROR ibv_create_cq(cqe=256) failed: Connection timed out
[1739919132.849937] [ohm:562829:0]        ib_iface.c:1059 UCX  ERROR ibv_create_cq(cqe=256) failed: Connection timed out
[1739919132.855378] [ohm:562947:0]        ib_iface.c:1059 UCX  ERROR ibv_create_cq(cqe=256) failed: Connection timed out
[1739919132.860847] [ohm:562870:0]        ib_iface.c:1059 UCX  ERROR ibv_create_cq(cqe=256) failed: Connection timed out
[1739919132.862053] [ohm:562831:0]        ib_iface.c:1059 UCX  ERROR ibv_create_cq(cqe=256) failed: Connection timed out
[1739919132.863066] [ohm:562881:0]        ib_iface.c:1059 UCX  ERROR ibv_create_cq(cqe=256) failed: Connection timed out
[1739919132.908760] [ohm:562954:0]        ib_iface.c:1059 UCX  ERROR ibv_create_cq(cqe=256) failed: Connection timed out
[1739919132.908853] [ohm:562874:0]        ib_iface.c:1059 UCX  ERROR ibv_create_cq(cqe=256) failed: Connection timed out
[1739919132.917362] [ohm:562896:0]        ib_iface.c:1059 UCX  ERROR ibv_create_cq(cqe=256) failed: Connection timed out
[1739919132.918073] [ohm:562963:0]        ib_iface.c:1059 UCX  ERROR ibv_create_cq(cqe=256) failed: Connection timed out
[1739919132.935801] [ohm:562873:0]        ib_iface.c:1059 UCX  ERROR ibv_create_cq(cqe=256) failed: Connection timed out
[1739919132.937873] [ohm:562941:0]        ib_iface.c:1059 UCX  ERROR ibv_create_cq(cqe=256) failed: Connection timed out
[1739919132.938777] [ohm:562965:0]        ib_iface.c:1059 UCX  ERROR ibv_create_cq(cqe=256) failed: Connection timed out
[1739919132.945837] [ohm:562953:0]        ib_iface.c:1059 UCX  ERROR ibv_create_cq(cqe=256) failed: Connection timed out
[1739919132.947658] [ohm:562843:0]        ib_iface.c:1059 UCX  ERROR ibv_create_cq(cqe=256) failed: Connection timed out
[1739919132.958080] [ohm:562885:0]        ib_iface.c:1059 UCX  ERROR ibv_create_cq(cqe=256) failed: Connection timed out
[1739919133.003460] [ohm:562938:0]        ib_iface.c:1059 UCX  ERROR ibv_create_cq(cqe=256) failed: Connection timed out
[1739919133.004351] [ohm:562891:0]        ib_iface.c:1059 UCX  ERROR ibv_create_cq(cqe=256) failed: Connection timed out
[1739919133.006680] [ohm:562908:0]        ib_iface.c:1059 UCX  ERROR ibv_create_cq(cqe=256) failed: Connection timed out
[1739919133.009301] [ohm:562916:0]        ib_iface.c:1059 UCX  ERROR ibv_create_cq(cqe=256) failed: Connection timed out
[1739919133.011942] [ohm:562875:0]        ib_iface.c:1059 UCX  ERROR ibv_create_cq(cqe=256) failed: Connection timed out
[1739919133.012054] [ohm:562917:0]        ib_iface.c:1059 UCX  ERROR ibv_create_cq(cqe=256) failed: Connection timed out
[1739919133.026547] [ohm:562902:0]        ib_iface.c:1059 UCX  ERROR ibv_create_cq(cqe=256) failed: Connection timed out
[1739919133.030790] [ohm:562944:0]        ib_iface.c:1059 UCX  ERROR ibv_create_cq(cqe=256) failed: Connection timed out
[1739919133.031081] [ohm:562877:0]        ib_iface.c:1059 UCX  ERROR ibv_create_cq(cqe=256) failed: Connection timed out
[1739919133.037804] [ohm:562842:0]        ib_iface.c:1059 UCX  ERROR ibv_create_cq(cqe=256) failed: Connection timed out
[1739919133.040880] [ohm:562926:0]        ib_iface.c:1059 UCX  ERROR ibv_create_cq(cqe=256) failed: Connection timed out
[1739919133.045778] [ohm:562921:0]        ib_iface.c:1059 UCX  ERROR ibv_create_cq(cqe=256) failed: Connection timed out
[1739919133.046231] [ohm:562930:0]        ib_iface.c:1059 UCX  ERROR ibv_create_cq(cqe=256) failed: Connection timed out
[1739919133.050297] [ohm:562853:0]        ib_iface.c:1059 UCX  ERROR ibv_create_cq(cqe=256) failed: Connection timed out
[1739919133.055348] [ohm:562942:0]        ib_iface.c:1059 UCX  ERROR ibv_create_cq(cqe=256) failed: Connection timed out
[1739919133.056585] [ohm:562935:0]        ib_iface.c:1059 UCX  ERROR ibv_create_cq(cqe=256) failed: Connection timed out
[1739919133.058234] [ohm:562832:0]        ib_iface.c:1059 UCX  ERROR ibv_create_cq(cqe=256) failed: Connection timed out
[1739919133.063414] [ohm:562869:0]        ib_iface.c:1059 UCX  ERROR ibv_create_cq(cqe=256) failed: Connection timed out
[1739919133.067733] [ohm:562895:0]        ib_iface.c:1059 UCX  ERROR ibv_create_cq(cqe=256) failed: Connection timed out
[1739919133.070924] [ohm:562886:0]        ib_iface.c:1059 UCX  ERROR ibv_create_cq(cqe=256) failed: Connection timed out
[1739919133.073582] [ohm:562911:0]        ib_iface.c:1059 UCX  ERROR ibv_create_cq(cqe=256) failed: Connection timed out
[1739919133.083045] [ohm:562847:0]        ib_iface.c:1059 UCX  ERROR ibv_create_cq(cqe=256) failed: Connection timed out
[1739919133.085446] [ohm:562871:0]        ib_iface.c:1059 UCX  ERROR ibv_create_cq(cqe=256) failed: Connection timed out
[1739919133.085444] [ohm:562969:0]        ib_iface.c:1059 UCX  ERROR ibv_create_cq(cqe=256) failed: Connection timed out
[1739919133.085669] [ohm:562872:0]        ib_iface.c:1059 UCX  ERROR ibv_create_cq(cqe=256) failed: Connection timed out
[1739919133.090396] [ohm:562859:0]        ib_iface.c:1059 UCX  ERROR ibv_create_cq(cqe=256) failed: Connection timed out
[1739919133.091267] [ohm:562909:0]        ib_iface.c:1059 UCX  ERROR ibv_create_cq(cqe=256) failed: Connection timed out
[1739919133.096393] [ohm:562975:0]        ib_iface.c:1059 UCX  ERROR ibv_create_cq(cqe=256) failed: Connection timed out
[1739919133.096886] [ohm:562828:0]        ib_iface.c:1059 UCX  ERROR ibv_create_cq(cqe=256) failed: Connection timed out
[1739919133.098666] [ohm:562830:0]        ib_iface.c:1059 UCX  ERROR ibv_create_cq(cqe=256) failed: Connection timed out
[1739919133.099826] [ohm:562865:0]        ib_iface.c:1059 UCX  ERROR ibv_create_cq(cqe=256) failed: Connection timed out
[1739919133.100147] [ohm:562846:0]        ib_iface.c:1059 UCX  ERROR ibv_create_cq(cqe=256) failed: Connection timed out
[1739919133.101776] [ohm:562827:0]        ib_iface.c:1059 UCX  ERROR ibv_create_cq(cqe=256) failed: Connection timed out
[1739919133.102786] [ohm:562845:0]        ib_iface.c:1059 UCX  ERROR ibv_create_cq(cqe=256) failed: Connection timed out
[1739919133.103306] [ohm:562876:0]        ib_iface.c:1059 UCX  ERROR ibv_create_cq(cqe=256) failed: Connection timed out
[1739919133.104721] [ohm:562863:0]        ib_iface.c:1059 UCX  ERROR ibv_create_cq(cqe=256) failed: Connection timed out
[1739919133.104882] [ohm:562833:0]        ib_iface.c:1059 UCX  ERROR ibv_create_cq(cqe=256) failed: Connection timed out
[1739919133.105129] [ohm:562878:0]        ib_iface.c:1059 UCX  ERROR ibv_create_cq(cqe=256) failed: Connection timed out
[1739919133.106820] [ohm:562960:0]        ib_iface.c:1059 UCX  ERROR ibv_create_cq(cqe=256) failed: Connection timed out


           ************************************************************
           *        Program running with 64 parallel MPI-processes    *
           *              working on a common directory               *
           ************************************************************
-------------------------------------------------------------------------------
                                 ORCA GUESS
                   Start orbitals & Density for SCF / CASSCF
-------------------------------------------------------------------------------

------------
SCF SETTINGS
------------
Hamiltonian:
 Density Functional     Method          .... DFT(GTOs)
  Functional kind                       .... Exchange-Correlation
  Functional name                       .... wB97M-V exchange-correlation functional
  Functional family                     .... Hybrid MGGA
  Functional refs                              
    [ 0] N. Mardirossian and M. Head-Gordon.,  J. Chem. Phys. 144, 214110 (2016), doi: 10.1063/1.4952647
  Fraction of HF Exchange (short range) .... 0.1500
  Fraction of HF Exchange (long range)  .... 1.0000
  Range separation parameter mu         .... 0.3000
  Functional external parameters        .... 17
    Parameter  0 _cx00      =  8.500000e-01 : u^00 coefficient for exchange
    Parameter  1 _cx01      =  1.007000e+00 : u^01 coefficient for exchange
    Parameter  2 _cx10      =  2.590000e-01 : u^10 coefficient for exchange
    Parameter  3 _css00     =  4.430000e-01 : u^00 coefficient for same-spin correlation
    Parameter  4 _css04     = -1.437000e+00 : u^04 coefficient for same-spin correlation
    Parameter  5 _css10     = -4.535000e+00 : u^10 coefficient for same-spin correlation
    Parameter  6 _css20     = -3.390000e+00 : u^20 coefficient for same-spin correlation
    Parameter  7 _css43     =  4.278000e+00 : u^43 coefficient for same-spin correlation
    Parameter  8 _cos00     =  1.000000e+00 : u^00 coefficient for opposite-spin correlation
    Parameter  9 _cos10     =  1.358000e+00 : u^10 coefficient for opposite-spin correlation
    Parameter 10 _cos20     =  2.924000e+00 : u^20 coefficient for opposite-spin correlation
    Parameter 11 _cos21     = -8.812000e+00 : u^21 coefficient for opposite-spin correlation
    Parameter 12 _cos60     = -1.390000e+00 : u^60 coefficient for opposite-spin correlation
    Parameter 13 _cos61     =  9.142000e+00 : u^61 coefficient for opposite-spin correlation
    Parameter 14 _alpha     =  1.000000e+00 : fraction of HF exchange
    Parameter 15 _beta      = -8.500000e-01 : fraction of short-range exchange
    Parameter 16 _omega     =  3.000000e-01 : range-separation constant
 Long-range corrected/Screened/Range-Separated Hybrid DFT is turned on
   Amount of maximum screened exact exchange              ....  0.850000
   Range separation parameter mu (erf(mu*r12)/r12)        ....  0.300000
 RI-approximation to the Coulomb term is turned on
   Number of AuxJ basis functions       .... 1014
   RIJ-COSX (HFX calculated with COS-X)).... on


General Settings:
 Integral files         IntName         .... orca
 Hartree-Fock type      HFTyp           .... UHF
 Total Charge           Charge          ....    0
 Multiplicity           Mult            ....    3
 Number of Electrons    NEL             ....  132
 Basis Dimension        Dim             ....  882
 Nuclear Repulsion      ENuc            ....   1450.5428798258 Eh

Convergence Acceleration:
 AO-DIIS                CNVDIIS         .... on
   Start iteration      DIISMaxIt       ....    12
   Startup error        DIISStart       ....  0.200000
   # of expansion vecs  DIISMaxEq       ....     5
   Bias factor          DIISBfac        ....   1.050
   Max. coefficient     DIISMaxC        ....  10.000
 MO-DIIS                CNVKDIIS        .... off
 Trust-Rad. Augm. Hess. CNVTRAH         .... auto
   Auto Start mean grad. ratio tolernc. ....  1.125000
   Auto Start start iteration           ....    50
   Auto Start num. interpolation iter.  ....    10
   Max. Number of Micro iterations      ....    24
   Max. Number of Macro iterations      .... Maxiter - #DIIS iter
   Number of Davidson start vectors     ....     2
   Converg. threshold    (grad. norm)   ....   1.000e-05
   Grad. Scal. Fac. for Micro threshold ....   0.100
   Minimum threshold for Micro iter.    ....   1.000e-02
   NR start threshold (gradient norm)   ....   1.000e-04
   Initial trust radius                 ....   0.400
   Minimum AH scaling param. (alpha)    ....   1.000
   Maximum AH scaling param. (alpha)    .... 1000.000
   Quad. conv. algorithm                .... NR
   White noise on init. David. guess    .... on
   Maximum white noise                  ....   0.010
   Pseudo random numbers                .... off
   Inactive MOs                         .... canonical
   Orbital update algorithm             .... Taylor
   Preconditioner                       .... Diag
   Full preconditioner red. dimension   ....   250
 SOSCF                  CNVSOSCF        .... on
   Start iteration      SOSCFMaxIt      ....   150
   Startup grad/error   SOSCFStart      ....  0.003300
   Hessian update       SOSCFHessUp     .... L-BFGS
 Level Shifting         CNVShift        .... on
   Level shift para.    LevelShift      ....    0.2500
   Turn off err/grad.   ShiftErr        ....    0.0010
 Zerner damping         CNVZerner       .... off
 Static damping         CNVDamp         .... on
   Fraction old density DampFac         ....    0.7000
   Max. Damping (<1)    DampMax         ....    0.9800
   Min. Damping (>=0)   DampMin         ....    0.0000
   Turn off err/grad.   DampErr         ....    0.1000

SCF Procedure:
 Maximum # iterations   MaxIter         ....   125
 SCF integral mode      SCFMode         .... Direct
   Integral package                     .... SHARK and LIBINT hybrid scheme
 Reset frequency        DirectResetFreq ....    20
 Integral Threshold     Thresh          ....  1.000e-12 Eh
 Primitive CutOff       TCut            ....  1.000e-13 Eh

Convergence Tolerance:
 Convergence Check Mode ConvCheckMode   .... Total+1el-Energy
 Convergence forced     ConvForced      .... 1
 Energy Change          TolE            ....  1.000e-08 Eh
 1-El. energy change                    ....  1.000e-05 Eh
 Orbital Gradient       TolG            ....  1.000e-05
 Orbital Rotation angle TolX            ....  1.000e-05
 DIIS Error             TolErr          ....  5.000e-07

------------------------------
INITIAL GUESS: MODEL POTENTIAL
------------------------------
Loading Hartree-Fock densities                     ... done
Calculating cut-offs                               ... done
Initializing the effective Hamiltonian             ... done
Setting up the integral package (SHARK)            ... done
Starting the Coulomb interaction                   ... done (   0.1 sec)
Making the grid                                    ... done (   0.3 sec)
Mapping shells                                     ... done
Starting the XC term evaluation                    ... done (   0.1 sec)
  promolecular density results
     # of electrons  =    131.994133202
     EX              =   -113.621073113
     EC              =     -4.493611424
     EX+EC           =   -118.114684536
Transforming the Hamiltonian                       ... done (   0.1 sec)
Diagonalizing the Hamiltonian                      ... done (   0.1 sec)
Back transforming the eigenvectors                 ... done (   0.1 sec)
Now organizing SCF variables                       ... done
                      ------------------
                      INITIAL GUESS DONE (   1.1 sec)
                      ------------------
             **** ENERGY FILE WAS UPDATED (orca.en.tmp) ****
Finished Guess after   3.5 sec
Maximum memory used throughout the entire GUESS-calculation: 72.9 MB
[1739919136.922273] [ohm:563216:0]        ib_iface.c:1059 UCX  ERROR ibv_create_cq(cqe=256) failed: Connection timed out
[1739919136.924118] [ohm:563240:0]        ib_iface.c:1059 UCX  ERROR ibv_create_cq(cqe=256) failed: Connection timed out
[1739919136.924394] [ohm:563217:0]        ib_iface.c:1059 UCX  ERROR ibv_create_cq(cqe=256) failed: Connection timed out
[1739919136.927195] [ohm:563225:0]        ib_iface.c:1059 UCX  ERROR ibv_create_cq(cqe=256) failed: Connection timed out
[1739919136.972944] [ohm:563239:0]        ib_iface.c:1059 UCX  ERROR ibv_create_cq(cqe=256) failed: Connection timed out
[1739919136.984455] [ohm:563241:0]        ib_iface.c:1059 UCX  ERROR ibv_create_cq(cqe=256) failed: Connection timed out
[1739919136.991878] [ohm:563249:0]        ib_iface.c:1059 UCX  ERROR ibv_create_cq(cqe=256) failed: Connection timed out
[1739919137.047400] [ohm:563290:0]        ib_iface.c:1059 UCX  ERROR ibv_create_cq(cqe=256) failed: Connection timed out
[1739919137.049469] [ohm:563277:0]        ib_iface.c:1059 UCX  ERROR ibv_create_cq(cqe=256) failed: Connection timed out
[1739919137.049865] [ohm:563269:0]        ib_iface.c:1059 UCX  ERROR ibv_create_cq(cqe=256) failed: Connection timed out
[1739919137.058425] [ohm:563242:0]        ib_iface.c:1059 UCX  ERROR ibv_create_cq(cqe=256) failed: Connection timed out
[1739919137.058944] [ohm:563327:0]        ib_iface.c:1059 UCX  ERROR ibv_create_cq(cqe=256) failed: Connection timed out
[1739919137.059417] [ohm:563261:0]        ib_iface.c:1059 UCX  ERROR ibv_create_cq(cqe=256) failed: Connection timed out
[1739919137.059420] [ohm:563299:0]        ib_iface.c:1059 UCX  ERROR ibv_create_cq(cqe=256) failed: Connection timed out
[1739919137.062517] [ohm:563275:0]        ib_iface.c:1059 UCX  ERROR ibv_create_cq(cqe=256) failed: Connection timed out
[1739919137.074279] [ohm:563287:0]        ib_iface.c:1059 UCX  ERROR ibv_create_cq(cqe=256) failed: Connection timed out
[1739919137.081152] [ohm:563264:0]        ib_iface.c:1059 UCX  ERROR ibv_create_cq(cqe=256) failed: Connection timed out
[1739919137.086456] [ohm:563273:0]        ib_iface.c:1059 UCX  ERROR ibv_create_cq(cqe=256) failed: Connection timed out
[1739919137.096919] [ohm:563279:0]        ib_iface.c:1059 UCX  ERROR ibv_create_cq(cqe=256) failed: Connection timed out
[1739919137.105969] [ohm:563258:0]        ib_iface.c:1059 UCX  ERROR ibv_create_cq(cqe=256) failed: Connection timed out
[1739919137.107810] [ohm:563346:0]        ib_iface.c:1059 UCX  ERROR ibv_create_cq(cqe=256) failed: Connection timed out
[1739919137.148444] [ohm:563276:0]        ib_iface.c:1059 UCX  ERROR ibv_create_cq(cqe=256) failed: Connection timed out
[1739919137.158209] [ohm:563278:0]        ib_iface.c:1059 UCX  ERROR ibv_create_cq(cqe=256) failed: Connection timed out
[1739919137.161029] [ohm:563351:0]        ib_iface.c:1059 UCX  ERROR ibv_create_cq(cqe=256) failed: Connection timed out
[1739919137.164800] [ohm:563317:0]        ib_iface.c:1059 UCX  ERROR ibv_create_cq(cqe=256) failed: Connection timed out
[1739919137.167190] [ohm:563304:0]        ib_iface.c:1059 UCX  ERROR ibv_create_cq(cqe=256) failed: Connection timed out
[1739919137.194381] [ohm:563255:0]        ib_iface.c:1059 UCX  ERROR ibv_create_cq(cqe=256) failed: Connection timed out
[1739919137.198300] [ohm:563336:0]        ib_iface.c:1059 UCX  ERROR ibv_create_cq(cqe=256) failed: Connection timed out
[1739919137.199114] [ohm:563364:0]        ib_iface.c:1059 UCX  ERROR ibv_create_cq(cqe=256) failed: Connection timed out
[1739919137.199555] [ohm:563265:0]        ib_iface.c:1059 UCX  ERROR ibv_create_cq(cqe=256) failed: Connection timed out
[1739919137.210179] [ohm:563293:0]        ib_iface.c:1059 UCX  ERROR ibv_create_cq(cqe=256) failed: Connection timed out
[1739919137.212296] [ohm:563331:0]        ib_iface.c:1059 UCX  ERROR ibv_create_cq(cqe=256) failed: Connection timed out
[1739919137.214837] [ohm:563334:0]        ib_iface.c:1059 UCX  ERROR ibv_create_cq(cqe=256) failed: Connection timed out
[1739919137.215733] [ohm:563271:0]        ib_iface.c:1059 UCX  ERROR ibv_create_cq(cqe=256) failed: Connection timed out
[1739919137.216602] [ohm:563214:0]        ib_iface.c:1059 UCX  ERROR ibv_create_cq(cqe=256) failed: Connection timed out
[1739919137.225124] [ohm:563282:0]        ib_iface.c:1059 UCX  ERROR ibv_create_cq(cqe=256) failed: Connection timed out
[1739919137.229201] [ohm:563236:0]        ib_iface.c:1059 UCX  ERROR ibv_create_cq(cqe=256) failed: Connection timed out
[1739919137.230301] [ohm:563221:0]        ib_iface.c:1059 UCX  ERROR ibv_create_cq(cqe=256) failed: Connection timed out
[1739919137.240444] [ohm:563359:0]        ib_iface.c:1059 UCX  ERROR ibv_create_cq(cqe=256) failed: Connection timed out
[1739919137.241603] [ohm:563285:0]        ib_iface.c:1059 UCX  ERROR ibv_create_cq(cqe=256) failed: Connection timed out
[1739919137.244882] [ohm:563301:0]        ib_iface.c:1059 UCX  ERROR ibv_create_cq(cqe=256) failed: Connection timed out
[1739919137.245592] [ohm:563321:0]        ib_iface.c:1059 UCX  ERROR ibv_create_cq(cqe=256) failed: Connection timed out
[1739919137.247454] [ohm:563328:0]        ib_iface.c:1059 UCX  ERROR ibv_create_cq(cqe=256) failed: Connection timed out
[1739919137.250183] [ohm:563347:0]        ib_iface.c:1059 UCX  ERROR ibv_create_cq(cqe=256) failed: Connection timed out
[1739919137.259733] [ohm:563324:0]        ib_iface.c:1059 UCX  ERROR ibv_create_cq(cqe=256) failed: Connection timed out
[1739919137.262987] [ohm:563212:0]        ib_iface.c:1059 UCX  ERROR ibv_create_cq(cqe=256) failed: Connection timed out
[1739919137.262984] [ohm:563244:0]        ib_iface.c:1059 UCX  ERROR ibv_create_cq(cqe=256) failed: Connection timed out
[1739919137.265139] [ohm:563352:0]        ib_iface.c:1059 UCX  ERROR ibv_create_cq(cqe=256) failed: Connection timed out
[1739919137.266612] [ohm:563310:0]        ib_iface.c:1059 UCX  ERROR ibv_create_cq(cqe=256) failed: Connection timed out
[1739919137.269107] [ohm:563251:0]        ib_iface.c:1059 UCX  ERROR ibv_create_cq(cqe=256) failed: Connection timed out
[1739919137.270408] [ohm:563308:0]        ib_iface.c:1059 UCX  ERROR ibv_create_cq(cqe=256) failed: Connection timed out
[1739919137.270929] [ohm:563238:0]        ib_iface.c:1059 UCX  ERROR ibv_create_cq(cqe=256) failed: Connection timed out
[1739919137.279165] [ohm:563218:0]        ib_iface.c:1059 UCX  ERROR ibv_create_cq(cqe=256) failed: Connection timed out
[1739919137.280318] [ohm:563314:0]        ib_iface.c:1059 UCX  ERROR ibv_create_cq(cqe=256) failed: Connection timed out
[1739919137.280799] [ohm:563215:0]        ib_iface.c:1059 UCX  ERROR ibv_create_cq(cqe=256) failed: Connection timed out
[1739919137.281876] [ohm:563245:0]        ib_iface.c:1059 UCX  ERROR ibv_create_cq(cqe=256) failed: Connection timed out
[1739919137.282239] [ohm:563213:0]        ib_iface.c:1059 UCX  ERROR ibv_create_cq(cqe=256) failed: Connection timed out
[1739919137.283711] [ohm:563224:0]        ib_iface.c:1059 UCX  ERROR ibv_create_cq(cqe=256) failed: Connection timed out
[1739919137.284140] [ohm:563223:0]        ib_iface.c:1059 UCX  ERROR ibv_create_cq(cqe=256) failed: Connection timed out
[1739919137.289798] [ohm:563226:0]        ib_iface.c:1059 UCX  ERROR ibv_create_cq(cqe=256) failed: Connection timed out
[1739919137.290008] [ohm:563343:0]        ib_iface.c:1059 UCX  ERROR ibv_create_cq(cqe=256) failed: Connection timed out
[1739919137.290939] [ohm:563220:0]        ib_iface.c:1059 UCX  ERROR ibv_create_cq(cqe=256) failed: Connection timed out
[1739919137.290945] [ohm:563219:0]        ib_iface.c:1059 UCX  ERROR ibv_create_cq(cqe=256) failed: Connection timed out
[1739919137.291266] [ohm:563222:0]        ib_iface.c:1059 UCX  ERROR ibv_create_cq(cqe=256) failed: Connection timed out


           ************************************************************
           *        Program running with 64 parallel MPI-processes    *
           *              working on a common directory               *
           ************************************************************

-------------------------------------------------------------------------------------------
                                      ORCA LEAN-SCF
                              memory conserving SCF solver
-------------------------------------------------------------------------------------------

----------------------------------------D-I-I-S--------------------------------------------
Iteration    Energy (Eh)           Delta-E    RMSDP     MaxDP     DIISErr   Damp  Time(sec)
-------------------------------------------------------------------------------------------
               ***  Starting incremental Fock matrix formation  ***
    1    -908.0985598170009325     0.00e+00  1.51e-03  2.77e-01  1.44e-01  0.700   8.0
    2    -908.3588755714699801    -2.60e-01  1.23e-03  1.58e-01  7.04e-02  0.700   6.6
                               ***Turning on AO-DIIS***
    3    -908.4766601219912445    -1.18e-01  9.43e-04  1.13e-01  2.71e-02  0.700   5.9
    4    -908.5490470403128711    -7.24e-02  2.38e-03  3.75e-01  1.91e-02  0.000   5.8
    5    -908.7133589171435233    -1.64e-01  3.75e-04  1.06e-01  5.52e-03  0.000   5.9
    6    -908.7164339527375887    -3.08e-03  2.60e-04  6.90e-02  5.28e-03  0.000   5.7
    7    -908.7188367053422553    -2.40e-03  3.01e-04  4.87e-02  4.81e-03  0.000   5.7
    8    -908.7217904165731852    -2.95e-03  3.09e-04  5.22e-02  4.15e-03  0.000   5.7
                              *** Initializing SOSCF ***
---------------------------------------S-O-S-C-F--------------------------------------
Iteration    Energy (Eh)           Delta-E    RMSDP     MaxDP     MaxGrad    Time(sec)
--------------------------------------------------------------------------------------
    9    -908.7242393932992854    -2.45e-03  2.83e-04  5.61e-02  2.92e-03     6.6
               *** Restarting incremental Fock matrix formation ***
   10    -908.7256150607290692    -1.38e-03  3.19e-04  6.54e-02  7.43e-03     7.5
   11    -908.7263215028951890    -7.06e-04  5.89e-04  1.22e-01  4.40e-03     6.8
   12    -908.7268028149646852    -4.81e-04  2.19e-04  3.34e-02  1.39e-03     6.9
   13    -908.7269090588756626    -1.06e-04  5.11e-05  8.82e-03  4.71e-04     6.8
   14    -908.7269230615511333    -1.40e-05  3.19e-05  5.73e-03  3.97e-04     6.5
   15    -908.7269318055150507    -8.74e-06  1.88e-05  3.75e-03  3.51e-04     6.4
   16    -908.7269348694658220    -3.06e-06  1.23e-05  1.64e-03  1.41e-04     6.3
   17    -908.7269360387235793    -1.17e-06  6.56e-06  1.30e-03  6.13e-05     6.2
   18    -908.7269363303498722    -2.92e-07  4.37e-06  9.00e-04  2.56e-05     6.0
   19    -908.7269363699356290    -3.96e-08  2.03e-06  5.02e-04  1.65e-05     5.9
   20    -908.7269363590949069     1.08e-08  1.88e-06  4.21e-04  6.37e-06     5.7
   21    -908.7269363942427844    -3.51e-08  1.54e-06  4.07e-04  3.79e-06     5.6
   22    -908.7269364370949916    -4.29e-08  1.99e-06  3.66e-04  1.83e-06     5.6
                  *** Gradient check signals convergence ***

               *****************************************************
               *                     SUCCESS                       *
               *           SCF CONVERGED AFTER  22 CYCLES          *
               *****************************************************

Recomputing exchange energy using gridx3       ... done (    7.928 sec)
Old exchange energy                            :    -35.051356910 Eh
New exchange energy                            :    -35.051372420 Eh
Exchange energy change after final integration :     -0.000015511 Eh
Total energy after final integration           :   -908.726951948 Eh
             **** ENERGY FILE WAS UPDATED (orca.en.tmp) ****

----------------
TOTAL SCF ENERGY
----------------

Total Energy       :       -908.72695194787570 Eh          -24727.71750 eV

Components:
Nuclear Repulsion  :       1450.54287982583946 Eh           39471.27844 eV
Electronic Energy  :      -2359.26981626293446 Eh          -64198.99551 eV
One Electron Energy:      -4118.22899882554884 Eh         -112062.70822 eV
Two Electron Energy:       1758.95918256261439 Eh           47863.71270 eV

Virial components:
Potential Energy   :      -1815.18442378871600 Eh          -49393.67930 eV
Kinetic Energy     :        906.45747184084030 Eh           24665.96180 eV
Virial Ratio       :          2.00250368073245

DFT components:
N(Alpha)           :       67.000081571410 electrons
N(Beta)            :       65.000065187975 electrons
N(Total)           :      132.000146759385 electrons
E(XC)              :      -86.366140267993 Eh       

---------------
SCF CONVERGENCE
---------------

  Last Energy change         ...    4.2852e-08  Tolerance :   1.0000e-08
  Last MAX-Density change    ...    3.6564e-04  Tolerance :   1.0000e-07
  Last RMS-Density change    ...    1.9863e-06  Tolerance :   5.0000e-09
  Last DIIS Error            ...    2.9153e-03  Tolerance :   5.0000e-07
  Last Orbital Gradient      ...    1.8304e-06  Tolerance :   1.0000e-05
  Last Orbital Rotation      ...    9.1013e-06  Tolerance :   1.0000e-05


----------------------
UHF SPIN CONTAMINATION
----------------------

Warning: in a DFT calculation there is little theoretical justification to 
         calculate <S**2> as in Hartree-Fock theory. We will do it anyways
         but you should keep in mind that the values have only limited relevance

Expectation value of <S**2>     :     2.011951
Ideal value S*(S+1) for S=1.0   :     2.000000
Deviation                       :     0.011951

----------------
ORBITAL ENERGIES
----------------
                 SPIN UP ORBITALS
  NO   OCC          E(Eh)            E(eV) 
   0   1.0000     -19.330796      -526.0177 
   1   1.0000     -19.325553      -525.8750 
   2   1.0000     -19.323180      -525.8105 
   3   1.0000     -19.322526      -525.7927 
   4   1.0000     -14.590045      -397.0153 
   5   1.0000     -14.586880      -396.9292 
   6   1.0000     -14.569123      -396.4460 
   7   1.0000     -14.547429      -395.8557 
   8   1.0000     -10.512403      -286.0570 
   9   1.0000     -10.502690      -285.7927 
  10   1.0000     -10.482662      -285.2477 
  11   1.0000     -10.457606      -284.5659 
  12   1.0000     -10.437884      -284.0293 
  13   1.0000     -10.413416      -283.3635 
  14   1.0000     -10.396720      -282.9091 
  15   1.0000     -10.385953      -282.6162 
  16   1.0000     -10.376182      -282.3503 
  17   1.0000     -10.351874      -281.6888 
  18   1.0000      -1.231771       -33.5182 
  19   1.0000      -1.222209       -33.2580 
  20   1.0000      -1.199185       -32.6315 
  21   1.0000      -1.184061       -32.2199 
  22   1.0000      -1.128370       -30.7045 
  23   1.0000      -1.118549       -30.4373 
  24   1.0000      -1.075431       -29.2640 
  25   1.0000      -1.061335       -28.8804 
  26   1.0000      -0.976242       -26.5649 
  27   1.0000      -0.961361       -26.1600 
  28   1.0000      -0.856386       -23.3034 
  29   1.0000      -0.852682       -23.2027 
  30   1.0000      -0.821164       -22.3450 
  31   1.0000      -0.815388       -22.1878 
  32   1.0000      -0.803213       -21.8565 
  33   1.0000      -0.791051       -21.5256 
  34   1.0000      -0.703549       -19.1445 
  35   1.0000      -0.698939       -19.0191 
  36   1.0000      -0.696861       -18.9625 
  37   1.0000      -0.690131       -18.7794 
  38   1.0000      -0.651996       -17.7417 
  39   1.0000      -0.640917       -17.4402 
  40   1.0000      -0.633842       -17.2477 
  41   1.0000      -0.609349       -16.5812 
  42   1.0000      -0.604132       -16.4393 
  43   1.0000      -0.600702       -16.3459 
  44   1.0000      -0.580653       -15.8004 
  45   1.0000      -0.567969       -15.4552 
  46   1.0000      -0.563523       -15.3342 
  47   1.0000      -0.559224       -15.2173 
  48   1.0000      -0.556680       -15.1480 
  49   1.0000      -0.540671       -14.7124 
  50   1.0000      -0.530495       -14.4355 
  51   1.0000      -0.525470       -14.2988 
  52   1.0000      -0.522257       -14.2113 
  53   1.0000      -0.517774       -14.0893 
  54   1.0000      -0.509228       -13.8568 
  55   1.0000      -0.499132       -13.5821 
  56   1.0000      -0.486253       -13.2316 
  57   1.0000      -0.479607       -13.0508 
  58   1.0000      -0.422359       -11.4930 
  59   1.0000      -0.415793       -11.3143 
  60   1.0000      -0.408576       -11.1179 
  61   1.0000      -0.397837       -10.8257 
  62   1.0000      -0.392536       -10.6814 
  63   1.0000      -0.389811       -10.6073 
  64   1.0000      -0.382495       -10.4082 
  65   1.0000      -0.347087        -9.4447 
  66   1.0000      -0.226132        -6.1534 
  67   0.0000       0.008924         0.2428 
  68   0.0000       0.014598         0.3972 
  69   0.0000       0.030286         0.8241 
  70   0.0000       0.036705         0.9988 
  71   0.0000       0.041598         1.1319 
  72   0.0000       0.055870         1.5203 
  73   0.0000       0.058588         1.5943 
  74   0.0000       0.062625         1.7041 
  75   0.0000       0.065339         1.7780 
  76   0.0000       0.068088         1.8528 
  77   0.0000       0.075496         2.0543 

                 SPIN DOWN ORBITALS
  NO   OCC          E(Eh)            E(eV) 
   0   1.0000     -19.330949      -526.0219 
   1   1.0000     -19.325451      -525.8723 
   2   1.0000     -19.321383      -525.7615 
   3   1.0000     -19.315642      -525.6053 
   4   1.0000     -14.589677      -397.0053 
   5   1.0000     -14.582026      -396.7971 
   6   1.0000     -14.569120      -396.4459 
   7   1.0000     -14.546566      -395.8322 
   8   1.0000     -10.512407      -286.0571 
   9   1.0000     -10.503129      -285.8047 
  10   1.0000     -10.482610      -285.2463 
  11   1.0000     -10.457337      -284.5586 
  12   1.0000     -10.437043      -284.0064 
  13   1.0000     -10.404220      -283.1132 
  14   1.0000     -10.386225      -282.6236 
  15   1.0000     -10.386052      -282.6188 
  16   1.0000     -10.376619      -282.3622 
  17   1.0000     -10.351830      -281.6876 
  18   1.0000      -1.231488       -33.5105 
  19   1.0000      -1.218202       -33.1490 
  20   1.0000      -1.199266       -32.6337 
  21   1.0000      -1.173991       -31.9459 
  22   1.0000      -1.127714       -30.6867 
  23   1.0000      -1.108118       -30.1534 
  24   1.0000      -1.075174       -29.2570 
  25   1.0000      -1.055599       -28.7243 
  26   1.0000      -0.969315       -26.3764 
  27   1.0000      -0.945179       -25.7196 
  28   1.0000      -0.852632       -23.2013 
  29   1.0000      -0.844410       -22.9776 
  30   1.0000      -0.815927       -22.2025 
  31   1.0000      -0.807536       -21.9742 
  32   1.0000      -0.802394       -21.8343 
  33   1.0000      -0.785700       -21.3800 
  34   1.0000      -0.702622       -19.1193 
  35   1.0000      -0.698057       -18.9951 
  36   1.0000      -0.690727       -18.7956 
  37   1.0000      -0.678504       -18.4630 
  38   1.0000      -0.647737       -17.6258 
  39   1.0000      -0.635610       -17.2958 
  40   1.0000      -0.625013       -17.0075 
  41   1.0000      -0.605457       -16.4753 
  42   1.0000      -0.596641       -16.2354 
  43   1.0000      -0.592245       -16.1158 
  44   1.0000      -0.570499       -15.5241 
  45   1.0000      -0.566994       -15.4287 
  46   1.0000      -0.559134       -15.2148 
  47   1.0000      -0.557090       -15.1592 
  48   1.0000      -0.549774       -14.9601 
  49   1.0000      -0.537048       -14.6138 
  50   1.0000      -0.527928       -14.3656 
  51   1.0000      -0.515703       -14.0330 
  52   1.0000      -0.513250       -13.9662 
  53   1.0000      -0.509799       -13.8723 
  54   1.0000      -0.498727       -13.5710 
  55   1.0000      -0.493222       -13.4212 
  56   1.0000      -0.475908       -12.9501 
  57   1.0000      -0.444510       -12.0957 
  58   1.0000      -0.421569       -11.4715 
  59   1.0000      -0.410971       -11.1831 
  60   1.0000      -0.403473       -10.9791 
  61   1.0000      -0.392086       -10.6692 
  62   1.0000      -0.380548       -10.3552 
  63   1.0000      -0.373433       -10.1616 
  64   1.0000      -0.350053        -9.5254 
  65   0.0000      -0.103268        -2.8101 
  66   0.0000       0.008625         0.2347 
  67   0.0000       0.017189         0.4677 
  68   0.0000       0.026686         0.7262 
  69   0.0000       0.034141         0.9290 
  70   0.0000       0.040563         1.1038 
  71   0.0000       0.055679         1.5151 
  72   0.0000       0.056821         1.5462 
  73   0.0000       0.059767         1.6263 
  74   0.0000       0.063130         1.7179 
  75   0.0000       0.066893         1.8202 
*Only the first 10 virtual orbitals were printed.

                    ********************************
                    * MULLIKEN POPULATION ANALYSIS *
                    ********************************

--------------------------------------------
MULLIKEN ATOMIC CHARGES AND SPIN POPULATIONS
--------------------------------------------
   0 O :   -0.705301    0.253768
   1 O :   -0.644978   -0.005721
   2 O :   -0.642709    0.066500
   3 O :   -0.674956    0.004195
   4 N :    0.007826    0.179102
   5 N :    0.001869    0.017442
   6 N :    0.005117    0.043070
   7 N :   -0.019913    0.000961
   8 C :    0.880282    0.301571
   9 C :    0.342771    0.032229
  10 C :   -0.707717    0.907406
  11 C :    0.144083    0.032186
  12 C :   -1.417621    0.023756
  13 C :   -1.391827   -0.018145
  14 C :    0.429583    0.169742
  15 C :    0.652422    0.015432
  16 C :    0.520699   -0.033341
  17 C :    0.458104   -0.008034
  18 H :    0.576644   -0.007254
  19 H :    0.252999    0.004197
  20 H :    0.254749    0.014394
  21 H :    0.301617    0.010136
  22 H :    0.440297    0.004389
  23 H :    0.328646    0.000199
  24 H :    0.325584    0.001247
  25 H :    0.190567    0.004393
  26 H :   -0.002688   -0.016299
  27 H :    0.032833    0.000611
  28 H :    0.011407   -0.000257
  29 H :    0.049610    0.002124
Sum of atomic charges         :   -0.0000000
Sum of atomic spin populations:    2.0000000

-----------------------------------------------------
MULLIKEN REDUCED ORBITAL CHARGES AND SPIN POPULATIONS
-----------------------------------------------------
CHARGE
  0 O s       :     4.100790  s :     4.100790
      pz      :     1.718803  p :     4.576110
      px      :     1.411520
      py      :     1.445787
      dz2     :     0.004002  d :     0.026589
[...]
[1739919439.402616] [ohm:565769:0]        ib_iface.c:1059 UCX  ERROR ibv_create_cq(cqe=256) failed: Connection timed out
[1739919439.402920] [ohm:565882:0]        ib_iface.c:1059 UCX  ERROR ibv_create_cq(cqe=256) failed: Connection timed out
[1739919439.405556] [ohm:565787:0]        ib_iface.c:1059 UCX  ERROR ibv_create_cq(cqe=256) failed: Connection timed out
[1739919439.406306] [ohm:565850:0]        ib_iface.c:1059 UCX  ERROR ibv_create_cq(cqe=256) failed: Connection timed out
[1739919439.407182] [ohm:565824:0]        ib_iface.c:1059 UCX  ERROR ibv_create_cq(cqe=256) failed: Connection timed out
[1739919439.407298] [ohm:565776:0]        ib_iface.c:1059 UCX  ERROR ibv_create_cq(cqe=256) failed: Connection timed out
[1739919439.407556] [ohm:565847:0]        ib_iface.c:1059 UCX  ERROR ibv_create_cq(cqe=256) failed: Connection timed out
[1739919439.407896] [ohm:565895:0]        ib_iface.c:1059 UCX  ERROR ibv_create_cq(cqe=256) failed: Connection timed out
[1739919439.408492] [ohm:565843:0]        ib_iface.c:1059 UCX  ERROR ibv_create_cq(cqe=256) failed: Connection timed out
[1739919439.408799] [ohm:565870:0]        ib_iface.c:1059 UCX  ERROR ibv_create_cq(cqe=256) failed: Connection timed out
[1739919439.408852] [ohm:565894:0]        ib_iface.c:1059 UCX  ERROR ibv_create_cq(cqe=256) failed: Connection timed out


           ************************************************************
           *        Program running with 64 parallel MPI-processes    *
           *              working on a common directory               *
           ************************************************************

------------------------------------------------------------------------------
                              ORCA PROPERTY CALCULATIONS
------------------------------------------------------------------------------

GBWName                                 ... orca.gbw
Number of atoms                         ...     30
Number of basis functions               ...    882
Max core memory                         ...   1024 MB

Electric properties:
Dipole moment                           ... YES
Quadrupole moment                       ...  NO
Static polarizability (Dipole/Dipole)   ...  NO
Static polarizability (Dipole/Quad.)    ...  NO
Static polarizability (Quad./Quad.)     ...  NO
Static polarizability (Velocity)        ...  NO

Atomic electric properties:
Dipole moment                           ...  NO
Quadrupole moment                       ...  NO
Static polarizability                   ...  NO

Choice of electric origin               ... Center of mass
Position of electric origin             ...     0.065400    -0.000859     0.119169

General magnetic properties:
Magnetizability                         ...  NO

EPR properties:
g-Tensor (aka g-matrix)                 ...  NO
Zero-Field splitting spin-orbit         ...  NO
Zero-field splitting spin-spin          ...  NO
Hyperfine couplings                     ...  NO (   0 nuclei)
Quadrupole couplings                    ...  NO (   0 nuclei)
Contact density                         ...  NO (   0 nuclei)

NMR properties:
Chemical shifts                         ...  NO (   0 nuclei)
Spin-rotation constants                 ...  NO (   0 nuclei)
Spin-spin couplings                     ...  NO (   0 nuclei,    0 pairs)

Choice of magnetic origin               ... GIAO
Position of magnetic origin             ...     0.000000     0.000000     0.000000

Properties with geometric perturbations:
SCF Hessian                             ...  NO
IR spectrum                             ...  NO
VCD spectrum                            ...  NO
X-ray spectroscopy properties:
SCF XES/XAS/RIXS spectra                ...  NO


-------------
DIPOLE MOMENT
-------------

Method             : SCF
Type of density    : Electron Density
Multiplicity       :   3
Irrep              :   0
Energy             :  -908.7269519478757047 Eh
Relativity type    : 
Basis              : AO
                                X                 Y                 Z
Electronic contribution:     -2.458928562      -9.529445824      -5.553284631
Nuclear contribution   :      1.707791046      10.743894778       7.892167006
                        -----------------------------------------
Total Dipole Moment    :     -0.751137515       1.214448954       2.338882375
                        -----------------------------------------
Magnitude (a.u.)       :      2.740340233
Magnitude (Debye)      :      6.965391324



--------------------
Rotational spectrum 
--------------------
 
Rotational constants in cm-1:             0.019550             0.015069             0.011838 
Rotational constants in MHz :           586.100099           451.747597           354.903012 

Dipole components along the rotational axes: 
x,y,z [a.u.] :     1.748516     1.345589     1.625284 
x,y,z [Debye]:     4.444374     3.420215     4.131143 

 

-------------
DIPOLE MOMENT
-------------

Method             : TDA/CIS
Type of density    : Electron Density
Level              : Relaxed density
State              :   2
Multiplicity       :   3
Irrep              :   0
Energy             :     0.0000000000000000 Eh
Relativity type    : 
Basis              : AO
                                X                 Y                 Z
Electronic contribution:     -2.559773684      -9.599022491      -5.579258885
Nuclear contribution   :      1.707791046      10.743894778       7.892167006
                        -----------------------------------------
Total Dipole Moment    :     -0.851982638       1.144872288       2.312908121
                        -----------------------------------------
Magnitude (a.u.)       :      2.717747403
Magnitude (Debye)      :      6.907964913



--------------------
Rotational spectrum 
--------------------
 
Rotational constants in cm-1:             0.019550             0.015069             0.011838 
Rotational constants in MHz :           586.100099           451.747597           354.903012 

Dipole components along the rotational axes: 
x,y,z [a.u.] :     1.817574     1.247427     1.589497 
x,y,z [Debye]:     4.619906     3.170709     4.040181 

 

Dipole moment calculation done in   0.2 sec 

Maximum memory used throughout the entire PROP-calculation: 82.0 MB
[1739919441.810999] [ohm:566109:0]        ib_iface.c:1059 UCX  ERROR ibv_create_cq(cqe=256) failed: Connection timed out
[1739919441.837517] [ohm:566113:0]        ib_iface.c:1059 UCX  ERROR ibv_create_cq(cqe=256) failed: Connection timed out
[1739919441.879719] [ohm:566132:0]        ib_iface.c:1059 UCX  ERROR ibv_create_cq(cqe=256) failed: Connection timed out
[1739919441.884523] [ohm:566110:0]        ib_iface.c:1059 UCX  ERROR ibv_create_cq(cqe=256) failed: Connection timed out
[1739919441.888618] [ohm:566118:0]        ib_iface.c:1059 UCX  ERROR ibv_create_cq(cqe=256) failed: Connection timed out
[1739919441.893312] [ohm:566111:0]        ib_iface.c:1059 UCX  ERROR ibv_create_cq(cqe=256) failed: Connection timed out
[1739919441.899663] [ohm:566108:0]        ib_iface.c:1059 UCX  ERROR ibv_create_cq(cqe=256) failed: Connection timed out
[1739919441.908879] [ohm:566130:0]        ib_iface.c:1059 UCX  ERROR ibv_create_cq(cqe=256) failed: Connection timed out
[1739919441.912048] [ohm:566134:0]        ib_iface.c:1059 UCX  ERROR ibv_create_cq(cqe=256) failed: Connection timed out
[1739919441.917989] [ohm:566127:0]        ib_iface.c:1059 UCX  ERROR ibv_create_cq(cqe=256) failed: Connection timed out
[1739919441.941245] [ohm:566114:0]        ib_iface.c:1059 UCX  ERROR ibv_create_cq(cqe=256) failed: Connection timed out
[1739919441.942774] [ohm:566166:0]        ib_iface.c:1059 UCX  ERROR ibv_create_cq(cqe=256) failed: Connection timed out
[1739919441.947932] [ohm:566135:0]        ib_iface.c:1059 UCX  ERROR ibv_create_cq(cqe=256) failed: Connection timed out
[1739919441.952634] [ohm:566112:0]        ib_iface.c:1059 UCX  ERROR ibv_create_cq(cqe=256) failed: Connection timed out
[1739919441.957367] [ohm:566187:0]        ib_iface.c:1059 UCX  ERROR ibv_create_cq(cqe=256) failed: Connection timed out
[1739919441.963454] [ohm:566137:0]        ib_iface.c:1059 UCX  ERROR ibv_create_cq(cqe=256) failed: Connection timed out
[1739919441.969132] [ohm:566115:0]        ib_iface.c:1059 UCX  ERROR ibv_create_cq(cqe=256) failed: Connection timed out
[1739919441.987264] [ohm:566195:0]        ib_iface.c:1059 UCX  ERROR ibv_create_cq(cqe=256) failed: Connection timed out
[1739919441.993491] [ohm:566258:0]        ib_iface.c:1059 UCX  ERROR ibv_create_cq(cqe=256) failed: Connection timed out
[1739919441.997518] [ohm:566160:0]        ib_iface.c:1059 UCX  ERROR ibv_create_cq(cqe=256) failed: Connection timed out
[1739919442.017431] [ohm:566116:0]        ib_iface.c:1059 UCX  ERROR ibv_create_cq(cqe=256) failed: Connection timed out
[1739919442.035126] [ohm:566149:0]        ib_iface.c:1059 UCX  ERROR ibv_create_cq(cqe=256) failed: Connection timed out
[1739919442.039737] [ohm:566227:0]        ib_iface.c:1059 UCX  ERROR ibv_create_cq(cqe=256) failed: Connection timed out
[1739919442.049007] [ohm:566117:0]        ib_iface.c:1059 UCX  ERROR ibv_create_cq(cqe=256) failed: Connection timed out
[1739919442.055136] [ohm:566163:0]        ib_iface.c:1059 UCX  ERROR ibv_create_cq(cqe=256) failed: Connection timed out
[1739919442.064045] [ohm:566183:0]        ib_iface.c:1059 UCX  ERROR ibv_create_cq(cqe=256) failed: Connection timed out
[1739919442.065809] [ohm:566148:0]        ib_iface.c:1059 UCX  ERROR ibv_create_cq(cqe=256) failed: Connection timed out
[1739919442.071459] [ohm:566167:0]        ib_iface.c:1059 UCX  ERROR ibv_create_cq(cqe=256) failed: Connection timed out
[1739919442.071640] [ohm:566190:0]        ib_iface.c:1059 UCX  ERROR ibv_create_cq(cqe=256) failed: Connection timed out
[1739919442.071925] [ohm:566152:0]        ib_iface.c:1059 UCX  ERROR ibv_create_cq(cqe=256) failed: Connection timed out
[1739919442.074080] [ohm:566164:0]        ib_iface.c:1059 UCX  ERROR ibv_create_cq(cqe=256) failed: Connection timed out
[1739919442.076004] [ohm:566180:0]        ib_iface.c:1059 UCX  ERROR ibv_create_cq(cqe=256) failed: Connection timed out
[1739919442.079559] [ohm:566250:0]        ib_iface.c:1059 UCX  ERROR ibv_create_cq(cqe=256) failed: Connection timed out
[1739919442.080578] [ohm:566177:0]        ib_iface.c:1059 UCX  ERROR ibv_create_cq(cqe=256) failed: Connection timed out
[1739919442.084482] [ohm:566172:0]        ib_iface.c:1059 UCX  ERROR ibv_create_cq(cqe=256) failed: Connection timed out
[1739919442.087290] [ohm:566159:0]        ib_iface.c:1059 UCX  ERROR ibv_create_cq(cqe=256) failed: Connection timed out
[1739919442.092813] [ohm:566205:0]        ib_iface.c:1059 UCX  ERROR ibv_create_cq(cqe=256) failed: Connection timed out
[1739919442.094098] [ohm:566156:0]        ib_iface.c:1059 UCX  ERROR ibv_create_cq(cqe=256) failed: Connection timed out
[1739919442.094634] [ohm:566170:0]        ib_iface.c:1059 UCX  ERROR ibv_create_cq(cqe=256) failed: Connection timed out
[1739919442.094624] [ohm:566238:0]        ib_iface.c:1059 UCX  ERROR ibv_create_cq(cqe=256) failed: Connection timed out
[1739919442.094728] [ohm:566141:0]        ib_iface.c:1059 UCX  ERROR ibv_create_cq(cqe=256) failed: Connection timed out
[1739919442.099744] [ohm:566161:0]        ib_iface.c:1059 UCX  ERROR ibv_create_cq(cqe=256) failed: Connection timed out
[1739919442.100277] [ohm:566203:0]        ib_iface.c:1059 UCX  ERROR ibv_create_cq(cqe=256) failed: Connection timed out
[1739919442.104569] [ohm:566241:0]        ib_iface.c:1059 UCX  ERROR ibv_create_cq(cqe=256) failed: Connection timed out
[1739919442.108766] [ohm:566139:0]        ib_iface.c:1059 UCX  ERROR ibv_create_cq(cqe=256) failed: Connection timed out
[1739919442.109982] [ohm:566162:0]        ib_iface.c:1059 UCX  ERROR ibv_create_cq(cqe=256) failed: Connection timed out
[1739919442.118884] [ohm:566158:0]        ib_iface.c:1059 UCX  ERROR ibv_create_cq(cqe=256) failed: Connection timed out
[1739919442.123391] [ohm:566212:0]        ib_iface.c:1059 UCX  ERROR ibv_create_cq(cqe=256) failed: Connection timed out
[1739919442.129080] [ohm:566198:0]        ib_iface.c:1059 UCX  ERROR ibv_create_cq(cqe=256) failed: Connection timed out
[1739919442.137252] [ohm:566136:0]        ib_iface.c:1059 UCX  ERROR ibv_create_cq(cqe=256) failed: Connection timed out
[1739919442.137515] [ohm:566157:0]        ib_iface.c:1059 UCX  ERROR ibv_create_cq(cqe=256) failed: Connection timed out
[1739919442.139879] [ohm:566245:0]        ib_iface.c:1059 UCX  ERROR ibv_create_cq(cqe=256) failed: Connection timed out
[1739919442.142792] [ohm:566235:0]        ib_iface.c:1059 UCX  ERROR ibv_create_cq(cqe=256) failed: Connection timed out
[1739919442.148429] [ohm:566223:0]        ib_iface.c:1059 UCX  ERROR ibv_create_cq(cqe=256) failed: Connection timed out
[1739919442.148956] [ohm:566219:0]        ib_iface.c:1059 UCX  ERROR ibv_create_cq(cqe=256) failed: Connection timed out
[1739919442.154409] [ohm:566140:0]        ib_iface.c:1059 UCX  ERROR ibv_create_cq(cqe=256) failed: Connection timed out
[1739919442.157172] [ohm:566138:0]        ib_iface.c:1059 UCX  ERROR ibv_create_cq(cqe=256) failed: Connection timed out
[1739919442.158140] [ohm:566142:0]        ib_iface.c:1059 UCX  ERROR ibv_create_cq(cqe=256) failed: Connection timed out
[1739919442.161232] [ohm:566252:0]        ib_iface.c:1059 UCX  ERROR ibv_create_cq(cqe=256) failed: Connection timed out
[1739919442.163417] [ohm:566211:0]        ib_iface.c:1059 UCX  ERROR ibv_create_cq(cqe=256) failed: Connection timed out
[1739919442.164332] [ohm:566247:0]        ib_iface.c:1059 UCX  ERROR ibv_create_cq(cqe=256) failed: Connection timed out
[1739919442.165348] [ohm:566225:0]        ib_iface.c:1059 UCX  ERROR ibv_create_cq(cqe=256) failed: Connection timed out
[1739919442.165468] [ohm:566232:0]        ib_iface.c:1059 UCX  ERROR ibv_create_cq(cqe=256) failed: Connection timed out
[1739919442.166091] [ohm:566217:0]        ib_iface.c:1059 UCX  ERROR ibv_create_cq(cqe=256) failed: Connection timed out

--------------------------------
SUGGESTED CITATIONS FOR THIS RUN
--------------------------------

Below you find a list of papers that are relevant to this ORCA run
We neither can nor want to force you to cite these papers, but we appreciate if you do
You receive ORCA, which is the product of decades of hard work by many enthusiastic individuals, for free
The only thing we kindly ask in return is that you cite our papers,
We deeply appreciate it, if you show your appreciation for ORCA by not just citing the generic ORCA reference.

Please note that relegating all ORCA citations to the supporting information does *not* help us.
SI sections are not indexed - citations you put there will not count into any citation statistics
But we need these citations in order to attract the funding resources that allow us to do what we are doing

Therefore, if you are a happy ORCA user, please consider citing a few of the papers listed below in the main body of your paper

In addition to the list printed below, the program has created the file orca.bibtex that contains the list in bibtex format
You can import this file easily into all common literature databanks and citation aid programs


List of essential papers. We consider these as the minimum necessary citations

  1. Neese,F.
     Software update: the ORCA program system, version 5.0
     WIRES Comput. Molec. Sci., 2022 12(1)e1606
     doi.org/10.1002/wcms.1606

List of papers to cite with high priority. The work reported in these papers was absolutely
necessary for this run to complete.
Our perspective: the developers of density functionals and basis sets usually get cited in chemistry papers
Good! But without the algorithms to do something with them, the functionals or basis sets would not do anything.
Hence, in our opinion, the algorithm design and method developments papers are equally worthy of getting cited

  1. Neese,F.; Olbrich,G.
     Efficient use of the resolution of the identity approximation in time-dependent density functional calculations with hybrid density functionals
     Chem. Phys. Lett., 2002 362 170-178
     doi.org/10.1016/s0009-2614(02)01053-9
  2. Neese,F.
     An improvement of the resolution of the identity approximation for the formation of the Coulomb matrix
     J. Comp. Chem., 2003 24(14)1740-1747
     doi.org/10.1002/jcc.10318
  3. Neese,F.; Wennmohs,F.; Hansen,A.; Becker,U.
     Efficient, approximate and parallel Hartree-Fock and hybrid DFT calculations. A 'chain-of-spheres' algorithm for the Hartree-Fock exchange
     Chem. Phys., 2009 356(1-3)98-109
     doi.org/10.1016/j.chemphys.2008.10.036
  4. Petrenko,T.; Kossmann,S.; Neese,F.
     Efficient time-dependent density functional theory approximations for hybrid density functionals: Analytical gradients and parallelization
     J. Chem. Phys., 2011 134 054116
     doi.org/10.1063/1.3533441
  5. Helmich-Paris,B.; de Souza,B.; Neese,F.; Izsák,R.
     An improved chain of spheres for exchange algorithm
     J. Chem. Phys., 2021 155 104109
     doi.org/doi: 10.1063/5.0058766.
  6. Neese,F.
     The SHARK Integral Generation and Digestion System
     J. Comp. Chem., 2022  1-16
     doi.org/10.1002/jcc.26942
  7. Lehtola,S.; Steigemann,C.; Oliveira,M.; Marques,M.
     Recent developments in Libxc - A comprehensive library of functionals for density functional theory
     Software X, 2018 7 
     doi.org/10.1016/j.softx.2017.11.002
  8. Grimme,S.; Antony,J.; Ehrlich,S.; Krieg,H.
     A consistent and accurate ab initio parametrization of density functional dispersion correction (DFT-D) for the 94 elements H-Pu
     J. Chem. Phys., 2010 132 154104-XXXX
     doi.org/10.1063/1.3382344
  9. Grimme,S.; Ehrlich,S.; Goerigk,L.
     Effect of the damping function in dispersion corrected density functional theory
     J. Comput. Chem., 2011 32(7)1456-1465
     doi.org/10.1002/jcc.21759

List of suggested additional citations. These are papers that are important in the 'surrounding' of 
of this run, or papers that preceded the highly important papers. If you like your results we are grateful for a citation.

  1. Izsak,R.; Neese,F.
     An overlap fitted chain of spheres exchange method
     J. Chem. Phys., 2011 135 144105
     doi.org/10.1063/1.3646921
  2. Izsak,R.; Hansen,A.; Neese,F.
     The resolution of identity and chain of spheres approximations for the LPNO-CCSD singles Fock term
     Molec. Phys., 2012 110 2413-2417
     doi.org/10.1080/00268976.2012.687466
  3. Neese,F.
     The ORCA program system
     WIRES Comput. Molec. Sci., 2012 2(1)73-78
     doi.org/10.1002/wcms.81
  4. Izsak,R.; Neese,F.; Klopper,W.
     Robust fitting techniques in the chain of spheres approximation to the Fock exchange: The role of the complementary space
     J. Chem. Phys., 2013 139 
     doi.org/10.1063/1.4819264
  5. Neese,F.
     Software update: the ORCA program system, version 4.0
     WIRES Comput. Molec. Sci., 2018 8(1)1-6
     doi.org/10.1002/wcms.1327
  6. Neese,F.; Wennmohs,F.; Becker,U.; Riplinger,C.
     The ORCA quantum chemistry program package
     J. Chem. Phys., 2020 152 Art. No. L224108
     doi.org/10.1063/5.0004608

List of optional additional citations

  1. Neese,F.
     Approximate second-order SCF convergence for spin unrestricted wavefunctions
     Chem. Phys. Lett., 2000 325(1-3)93-98
     doi.org/10.1016/s0009-2614(00)00662-x

Timings for individual modules:

Sum of individual times          ...      315.431 sec (=   5.257 min)
Startup calculation              ...        6.373 sec (=   0.106 min)   2.0 %
SCF iterations                   ...      155.769 sec (=   2.596 min)  49.4 %
Property integrals               ...        4.343 sec (=   0.072 min)   1.4 %
Property calculations            ...        2.831 sec (=   0.047 min)   0.9 %
CIS module                       ...      146.116 sec (=   2.435 min)  46.3 %
                             ****ORCA TERMINATED NORMALLY****
TOTAL RUN TIME: 0 days 0 hours 5 minutes 17 seconds 429 msec
