7
Properties=species:S:1:pos:R:3:REF_forces:R:3 REF_energy=-4187.214295414914 pbc="F F F"
O        0.42622166       1.41313651      -0.03310847       3.60151643      -7.39265005      -1.14620481
C        0.79309923       0.14308468      -0.15672196      -7.15211967       7.89984761       2.42965267
C       -0.37212705      -0.85800638       0.23993707       2.27895279       2.93221120       0.34032893
H       -0.89474212      -0.51121960       1.11739281       0.22261993       0.21049988       0.31100352
H        1.65684237      -0.26584204      -0.58329684       1.78667730      -0.15655925      -0.66202881
H        0.15775056      -1.72315062       0.40700830       0.10995674      -2.72055252       0.01150128
H       -1.03733001      -0.71624755      -0.55956114      -0.84633751      -0.76741565      -1.28720414
7
Properties=species:S:1:pos:R:3:REF_forces:R:3 REF_energy=-4188.231311863379 pbc="F F F"
O        0.81327338       1.38951878      -0.00041788      -1.80937550      -2.41276633      -0.54663036
C        0.52211397       0.22269398       0.21592016       2.18669044       2.29775253       0.79726704
C       -0.46015738      -0.80236879      -0.23992649      -0.80575507       0.18824190      -0.60011418
H        1.17847554      -0.25877339       0.96298809       0.19820372      -0.45312590       0.40701654
H        0.11253427      -1.65600180      -0.61861709      -0.04725002       0.18273597       0.07560392
H       -1.17785539      -0.47652898      -0.99369917       0.12167990       0.08319107       0.08702288
H       -0.99229294      -1.15539026       0.65458613       0.15336534       0.12227914      -0.22722504
7
Properties=species:S:1:pos:R:3:REF_forces:R:3 REF_energy=-4184.186951056257 pbc="F F F"
O        0.55428876       1.09863009       0.27921040      -1.11312336      -0.30783928       0.15459228
C        0.58069148      -0.20350455       0.02239025       2.18085019      -0.01901227      -0.29654748
C       -0.76113314      -0.73199970       0.01754870      -0.82632315       0.82325849       0.54456347
H        1.21963774      -0.81634765       0.71703067      -0.23763753      -0.07944763       0.08203013
H        1.04829631      -0.39716834      -0.95540950       0.00003471      -0.22627594      -0.29931744
H       -1.18732126      -1.27947419      -0.80405706       0.03467773      -0.10916371      -0.18981414
H       -1.43331035      -0.33458661       0.76501187      -0.03556039      -0.07712478       0.00568146
7
Properties=species:S:1:pos:R:3:REF_forces:R:3 REF_energy=-4183.830656193735 pbc="F F F"
O        0.19898713       1.08646712       0.00322677      -0.84556558      -3.33845371      -0.18016925
C        0.63422062      -0.24731424      -0.10734284       1.40090663       1.59140656       0.59009251
C       -0.76000506      -0.98097083       0.10859470       3.45190670       3.86548463      -0.47368380
H        1.41577957      -0.42669007       0.67235744      -0.92570062      -0.40408990       0.18160589
H        1.24959863      -0.39578715      -1.01750996      -1.12302334      -0.46544643      -0.19954796
H       -1.28613699      -0.97475077      -0.81303198      -1.05299096      -0.56697512      -0.26509388
H       -1.11891758      -0.57555437       1.03513017      -0.90648884      -0.68161882       0.34045355
7
Properties=species:S:1:pos:R:3:REF_forces:R:3 REF_energy=-4183.720818106278 pbc="F F F"
O        0.52177002       0.89364749       0.67527455       0.00727227      -0.59792224       0.17148283
C        0.45472237      -0.31897014       0.12768648      -1.15622263       2.16296110      -2.65952996
C       -0.71094742      -0.49893460      -0.88464702       0.95622110      -0.60289079       1.82726283
H        0.58596701      -1.11173738       0.80263914      -0.36059037      -1.53140931       1.50623609
H        1.48311805      -0.46481176      -0.32755055      -0.51927159      -0.09360259      -0.60969699
H       -1.19344667       0.43052338      -1.13114320       0.08290432       0.22867602      -0.28433347
H       -1.36012939      -1.39300613      -0.98724035       0.98863325       0.43561971       0.04382511
7
Properties=species:S:1:pos:R:3:REF_forces:R:3 REF_energy=-4187.254949330642 pbc="F F F"
O        0.75880175       1.37081039      -0.48598050      -2.69585696      -7.05205381       5.15803901
C        0.35993002       0.40803100       0.38720787       2.06177194       5.91233616      -6.49135591
C       -0.22908760      -0.97765957       0.11430266       0.67252882      -1.23387425       0.18009853
H        0.39956950       0.77418280       1.38899362      -0.01693163      -0.26216730       1.15227462
H        0.39028460      -1.71500331      -0.48710488      -0.18570330       1.36003932       0.71403174
H       -1.15660584      -0.96519621      -0.44378087      -0.19897944       0.66829952      -0.17134437
H       -0.47731722      -1.50187671       1.06665944       0.36592810       0.60233979      -0.54166753
7
Properties=species:S:1:pos:R:3:REF_forces:R:3 REF_energy=-4184.315133694134 pbc="F F F"
O       -0.16513580       0.97852900      -0.23925181       2.13883886      -2.52022272       1.59773379
C        0.77646556      -0.84654497       0.03604854      -4.18952147       1.76479289      -1.63724605
C       -0.60322546      -0.28235779       0.23057917      -2.06984165       1.80302243       0.24792089
H        1.27813864      -1.30222428       0.83571385       1.11185565       0.28659919       0.85590623
H        0.86139363      -1.05271725      -1.00072216       1.16728096      -0.11382653      -0.45647609
H       -1.42834463      -0.50119329      -0.50131525       0.88366427      -1.38197083       0.62072730
H       -1.04096598      -0.33221436       1.28996614       0.95857661       0.15434819      -1.22176836
7
Properties=species:S:1:pos:R:3:REF_forces:R:3 REF_energy=-4184.117735547407 pbc="F F F"
O        0.55767619       1.10696917       0.27675883      -1.23867527      -0.53673643      -0.05023389
C        0.58294946      -0.21953779       0.01520749       1.92774101       0.93159677       0.39593431
C       -0.77350495      -0.73701747       0.02074626      -0.03237003       0.96349315       0.74776658
H        1.24766662      -0.73818046       0.74647593      -0.33870295      -0.45748939       0.00075717
H        1.08780310      -0.35322341      -0.93846145      -0.01068141      -0.55718881      -0.62972533
H       -1.19659652      -1.29803259      -0.77689403      -0.17204277      -0.25936609      -0.54759044
H       -1.42514650      -0.31988453       0.76999638      -0.13254092      -0.08008147       0.08419918
7
Properties=species:S:1:pos:R:3:REF_forces:R:3 REF_energy=-4183.998176562939 pbc="F F F"
O        0.96927518       0.78423805      -0.33075483      -0.90397686      -0.86846630       1.26033766
C        0.23363343       0.13130615       0.59448500      -0.71579003       1.09292254      -2.88074450
C       -0.83487325      -0.73685855       0.05581971      -0.52229186       0.84689533      -1.16655924
H       -0.25235971       0.82597737       1.31981003      -0.33197850       0.05243741       0.10861300
H        0.78681810      -0.46511718       1.25659056       1.47523276      -1.13061601       1.24698870
H       -1.18098326      -1.67608296       0.46804137       0.27108187       0.12132777       0.40347981
H       -1.28073112      -0.50317191      -0.94473482       0.73117933      -0.11036688       1.02690036
7
Properties=species:S:1:pos:R:3:REF_forces:R:3 REF_energy=-4183.718426800069 pbc="F F F"
O        0.52029823       1.20787082      -0.04338143      -1.19090476      -3.19134075      -0.02839432
C        0.56667786      -0.26910500       0.03551353       0.43551845       1.56384217       0.63100915
C       -0.82313414      -0.90362445       0.01348193       1.32125501       1.73863924      -0.48916544
H        1.12553697      -0.56280839       0.92935532      -0.24779971      -0.08762537      -0.07808517
H        1.11041041      -0.61780956      -0.84152222      -0.01335326      -0.02132353      -0.25729030
H       -1.37542415      -0.87858582      -0.89309549      -0.25436824       0.09537376      -0.63734594
H       -1.36889114      -1.18304570       0.87623403      -0.04982063      -0.09481679       0.85812961
7
Properties=species:S:1:pos:R:3:REF_forces:R:3 REF_energy=-4183.930498873815 pbc="F F F"
O        0.34220078       1.14977484       0.13515732       0.95727652      -2.45279561      -0.00229207
C        0.53993301      -0.19361352      -0.01505828      -1.43670136       1.41519452      -0.01138145
C       -0.73040695      -0.97561081      -0.11471483       1.30188445       3.24270937      -1.01151997
H        1.21129358      -0.72360808       0.72680260      -0.22729612       0.68358749      -0.30922763
H        1.10944054      -0.36324327      -1.00639172      -0.52886340      -0.22918517       0.66215601
H       -1.56911262      -0.31982023      -0.40347076       0.20573686      -0.92900710       0.37510804
H       -0.77743983      -1.99211968       0.07424226      -0.27056941      -1.73126919       0.29891377
7
Properties=species:S:1:pos:R:3:REF_forces:R:3 REF_energy=-4186.650443958166 pbc="F F F"
O        0.09837710       0.85844283      -0.00051294      -2.06904992      -2.50992393       0.02142972
C        0.68671219      -0.39418655       0.00017371       1.59210445      -0.12595356      -0.08153552
C       -0.73379626      -0.54702800       0.00075817       0.54889845       3.06900212      -0.06149387
H        1.23975750      -0.64267614       0.90496941       0.08319623      -0.10386713      -0.02576231
H        1.23782248      -0.63203463      -0.91094071       0.05354267      -0.14498295       0.08712098
H       -1.26297275      -0.67293268      -0.92662940      -0.08018585      -0.07198402      -0.01352629
H       -1.25975404      -0.66138654       0.92907126      -0.12031910      -0.11029857       0.07398870
7
Properties=species:S:1:pos:R:3:REF_forces:R:3 REF_energy=-4187.1644709234215 pbc="F F F"
O        0.74282463       1.41351389       0.13753148      -0.46588247      -9.62222341      -3.25729566
C        0.63541803       0.10568304      -0.30021618      -1.26183489       8.12364480       3.46866824
C       -0.55760704      -0.81269996       0.19716595       1.96063058       0.84343142      -1.00838124
H       -0.15407155      -1.61180988       0.82895946      -0.03720914       0.07914836      -0.23957163
H        1.27550015      -0.30562792      -1.09831736       0.15499500       0.29969806       0.35012145
H       -1.01483123      -1.24811619      -0.71528790       0.05572018       0.26263406       0.72037998
H       -1.19065391      -0.17093858       0.78425697      -0.41360820       0.01479648      -0.03290043
7
Properties=species:S:1:pos:R:3:REF_forces:R:3 REF_energy=-4183.472881483386 pbc="F F F"
O        0.51987566       1.18624599      -0.01295612      -0.99868292      -2.54962343       0.11509405
C        0.47646483      -0.27553639      -0.00835827       0.64324799       1.61358598      -0.40866166
C       -0.83069977      -0.97280844       0.02099375      -1.30342154       2.06397500      -0.35041744
H        1.01660062      -0.60440030       0.83529740       0.98447701      -0.05962160       1.24516030
H        1.01372272      -0.61086910      -0.87707656       0.37257165      -0.17249958      -0.58890506
H       -1.43716386      -0.76895738      -0.85622837      -0.04507751      -0.48232919      -0.06806238
H       -1.41689655      -1.02680527       0.93385260       0.35124482      -0.41152583       0.05686632
7
Properties=species:S:1:pos:R:3:REF_forces:R:3 REF_energy=-4187.909440796422 pbc="F F F"
O        0.81558726       1.41666861      -0.00513547      -2.60089423      -5.74957930       0.19293545
C        0.51733771       0.19065971       0.23426124       2.59101726       6.37981780      -0.69655027
C       -0.45545567      -0.80828428      -0.24343448      -1.32054594      -0.04068665      -1.09665830
H        1.19409219      -0.21537477       0.95251040       0.62387050      -1.01258146       1.05014611
H        0.09612493      -1.66433358      -0.66105784      -0.05360226       0.28256164       0.27882307
H       -1.17483779      -0.46566202      -1.00947150       0.48636367       0.08339222       0.42076441
H       -1.02728515      -1.17222980       0.62133186       0.27113992       0.05645595      -0.15473795
7
Properties=species:S:1:pos:R:3:REF_forces:R:3 REF_energy=-4187.207735060443 pbc="F F F"
O        0.64287210       1.39800827      -0.14515320      -2.57126522      -6.66150110       4.91470554
C        0.28733653       0.27844699       0.53851589       4.04940351       7.00143420      -6.46796188
C       -0.06841594      -0.88562873      -0.34986369      -1.44087720      -0.51906004       0.74700465
H        0.52093878       0.27091627       1.60864672      -0.60872418      -0.35288076      -0.02618995
H        0.68545853      -1.42755712      -0.89691508       1.18941085       0.45554422       0.30532484
H       -0.70952419      -0.55039067      -1.17495479      -0.14543458       0.12631736       0.61740114
H       -0.53313886      -1.66575770       0.24916591      -0.47689600      -0.04728634      -0.09385804
7
Properties=species:S:1:pos:R:3:REF_forces:R:3 REF_energy=-4187.173080387234 pbc="F F F"
O        0.72770055       1.34326751       0.30083300       0.56673104      -8.63250620      -4.10381316
C        0.69344290       0.11040857      -0.27484725      -1.20959859       7.73142382       2.70226017
C       -0.57379066      -0.74928946       0.00899493       0.05337466       1.52630784       1.26834766
H       -0.42933869      -1.41350712       0.88082955       0.16013899       0.18363945      -0.58374611
H        1.43079829      -0.21774451      -1.13334613      -1.02616477       0.57668992       1.84670863
H       -0.88726084      -1.27927406      -0.84645292       0.04814037      -0.98968313      -0.98121361
H       -1.45579352      -0.08908005       0.26986909       1.40856819      -0.39383831      -0.15344880
7
Properties=species:S:1:pos:R:3:REF_forces:R:3 REF_energy=-4183.6462449952805 pbc="F F F"
O        0.56129594       1.18586029       0.05995269       0.09834694      -3.03129186      -0.11385965
C        0.49896241      -0.26695260       0.12812430      -2.53301819       3.32121115      -0.27962301
C       -0.82513711      -0.87518597      -0.17374284       0.90194937       0.31457996      -0.90716377
H        0.83199138      -0.42020140       1.12348412       0.44386159      -0.42984599       1.44568486
H        1.22022457      -0.74182037      -0.47634831       1.35088923      -0.42972571      -1.00288787
H       -1.50895996      -0.17416854      -0.63495703      -0.37584765      -0.14804752       0.33070106
H       -0.92310456      -1.92543058      -0.47253812       0.11249874       0.40435511       0.52804581
7
Properties=species:S:1:pos:R:3:REF_forces:R:3 REF_energy=-4182.515208400707 pbc="F F F"
O       -0.34466086       1.30136544       0.04914279       0.05146595      -4.23368007      -0.07536903
C        0.78825889      -1.16142071      -0.03473219       2.10105745       3.43907261       0.62223402
C       -0.46826369      -0.38368727      -0.02608426      -0.21122920       1.23997512      -0.14599537
H        1.42503619      -0.92234383       0.86161664      -0.72334364      -1.06183974      -0.60049752
H        1.41300899      -1.10467682      -0.93310428      -0.47439637      -0.84931634      -0.04074521
H       -1.05630482      -0.64763040      -0.91011075      -0.17302885       0.63965252       0.37095270
H       -0.93927315      -0.68876973       0.91077322      -0.57661439       0.83350676      -0.13149436
7
Properties=species:S:1:pos:R:3:REF_forces:R:3 REF_energy=-4188.424911319583 pbc="F F F"
O        0.70713198       1.35728732       0.07306435      -0.75102050      -2.82042228      -0.43598150
C        0.55509930       0.18586305      -0.25364947       0.72184451       2.99872035       0.45170532
C       -0.45068502      -0.80885567       0.22552738      -0.60426083      -0.07975468      -0.34347089
H        0.07711289      -1.65917619       0.64250903       0.09256410      -0.16812948       0.03933202
H        1.23435616      -0.23025271      -1.01266345       0.24348366      -0.26136223      -0.28499259
H       -1.03251260      -1.17288865      -0.64324899       0.37224475       0.15107313       0.35996412
H       -1.13165147      -0.39654596       0.95272897      -0.07321342       0.19325745       0.21636525
7
Properties=species:S:1:pos:R:3:REF_forces:R:3 REF_energy=-4184.064353826905 pbc="F F F"
O        0.04047124       1.01548233      -0.26186451      -0.32508908      -4.03104154       0.61977251
C        0.65450664      -0.19207969       0.15951669      -0.81326731       2.36678507       2.58265080
C       -0.67493396      -0.96563049       0.10636381       2.10407535       3.93117126       0.26653142
H        1.14736959      -0.00801134       1.17343483      -1.26930531      -0.53712676      -0.34898852
H        1.52399376      -0.53682417      -0.31129028       0.79017889      -0.78710238      -1.97719327
H       -0.91172829      -0.94241550      -0.97486597      -0.99821952      -0.85478487       1.16477776
H       -1.26065291      -1.02494267       1.09388414       0.50968290      -0.08418540      -2.31202373
7
Properties=species:S:1:pos:R:3:REF_forces:R:3 REF_energy=-4183.977510249962 pbc="F F F"
O        0.06185604       1.09010500       0.06107319      -0.62077801      -5.59845776      -0.07547795
C        0.62841440      -0.49868735      -0.12806277       1.64053971       3.93909208      -1.08999834
C       -0.69163323      -0.77397562       0.07720936      -3.95952739       2.60393446      -0.27814156
H        1.36329674      -0.65678217       0.61424078       0.62243949      -0.24443905       0.54860718
H        0.95557252      -0.41805831      -1.16333544       0.23294921      -0.70652353       0.35361491
H       -1.34825518      -0.88985138      -0.91158105       1.22368347       0.24164143       2.79980825
H       -1.15435640      -0.82637964       1.13728487       0.86180211      -0.23502407      -2.25692388
7
Properties=species:S:1:pos:R:3:REF_forces:R:3 REF_energy=-4184.127864806368 pbc="F F F"
O       -0.21269535       0.91047059      -0.61133757       0.28694139      -2.34476300       1.56387924
C        0.64215791       0.06700615       0.11221319      -1.46540676       1.05980929      -0.56131117
C       -0.28390903      -1.03837276       0.58425812       1.11718037       0.93990767      -1.95993245
H        1.20474893       0.60595506       0.86262316      -0.00778247       0.05545575       0.70497477
H        1.32989753      -0.39866615      -0.53236740       1.34153341      -0.65002216      -0.91694353
H       -1.20783372      -0.81601938       0.99189375      -1.50355537       0.69547262       1.11340866
H       -0.25196755      -2.01144013       0.09574221       0.23705921       0.23888906       0.05201631
7
Properties=species:S:1:pos:R:3:REF_forces:R:3 REF_energy=-4183.553245271672 pbc="F F F"
O        0.64842543       1.15586883       0.12056197       0.28608075      -4.50983462      -0.19922234
C        0.55120613      -0.27837717       0.03855996       0.32514271       2.63393589      -0.14309388
C       -0.85085762      -0.70748552       0.12117215       0.16568646       0.99913985       0.93683937
H        1.21187315      -0.84764779       0.76828148      -0.81606328       0.83410648       0.31595544
H        1.11761975      -0.82102833      -0.79268465      -0.68527557       0.90538295      -0.17966096
H       -1.20412733      -1.58293950       0.63759835       0.35345898      -0.55820251      -0.15142423
H       -1.58830968       0.10503151       0.16132043       0.37140125      -0.30724781      -0.57999828
7
Properties=species:S:1:pos:R:3:REF_forces:R:3 REF_energy=-4182.864163222138 pbc="F F F"
O        0.15099747       1.19156642       0.00264354      -0.67103016      -4.41623357       0.03957495
C        0.58472905      -0.59789686       0.03129613       1.69490168       3.04522863      -0.14439066
C       -0.74988350      -0.84291041      -0.02431682      -1.51233214       4.24777526       0.23180315
H        1.12275933      -0.61331692       0.95529200       0.28534078      -0.34837741       0.11585621
H        1.09611080      -0.54922810      -0.90527959       0.66373418      -0.67836345      -0.08684645
H       -1.23958770      -0.70558974      -0.96186782      -0.30416632      -0.76714766      -0.62556373
H       -1.35192715      -0.51295878       0.81063756      -0.15977016      -1.08741745       0.47094527
7
Properties=species:S:1:pos:R:3:REF_forces:R:3 REF_energy=-4183.861941737891 pbc="F F F"
O       -0.33500610       0.99547582      -0.47749570       1.27436389      -0.92862134       1.95297722
C        0.28786033       0.10835727       0.38727323      -1.11961729       3.08120660      -3.70323869
C        0.08119417      -1.25028252       0.08424712      -0.73874877       0.61602551      -1.79385851
H       -0.24467532       0.24628642       1.34678486      -0.30340079      -0.09416941       0.44913775
H        1.33239087       0.43501341       0.65198294      -0.45906730      -0.51943014       0.04973865
H       -0.46224445      -1.64963216      -0.78864126       0.45358744       0.62219791       0.58782007
H        0.31738295      -1.85706221       0.84356174       0.89492059      -2.77419312       2.45419374
7
Properties=species:S:1:pos:R:3:REF_forces:R:3 REF_energy=-4185.091122169634 pbc="F F F"
O        0.30931838       1.00706122      -0.00381168      -2.46963689      -2.34614176      -0.05281315
C        0.63407328      -0.32883331       0.00192444       2.38020998       0.51447412      -0.32229670
C       -0.76159895      -0.71561178      -0.00186420       0.56498482       3.03349652      -0.00313847
H        1.20870348      -0.57268505       0.89628272      -0.01072171      -0.54775289       0.12935813
H        1.21978871      -0.60775965      -0.88668296      -0.12056070      -0.32613556       0.10622377
H       -1.31846462      -0.69552384      -0.92257560      -0.05313485      -0.17082414      -0.02359326
H       -1.27949298      -0.71230337       0.93499743      -0.29272720      -0.15754585       0.16676228
7
Properties=species:S:1:pos:R:3:REF_forces:R:3 REF_energy=-4186.604938313833 pbc="F F F"
O       -0.09587380       0.81258604       0.00547136       2.18216740      -2.32022195      -0.01538045
C        0.78326160      -0.55433774      -0.00686899      -2.90774055       3.41359139      -0.31086052
C       -0.73269882      -0.41232101       0.00179669       0.92019140      -0.15844898      -0.29792058
H        1.32356388      -0.61643441       0.92915559      -0.11368036      -0.21993254      -0.19921306
H        1.33225480      -0.61032461      -0.95646864      -0.42950501      -0.19741577       0.62609689
H       -1.27872166      -0.61834054      -0.93675323       0.19366312      -0.23176266       0.54168470
H       -1.29184960      -0.62111751       0.92307181       0.15362978      -0.28489044      -0.34431631
7
Properties=species:S:1:pos:R:3:REF_forces:R:3 REF_energy=-4183.735870829695 pbc="F F F"
O        0.55950332       0.50209878      -0.79654125       1.34419601       1.00450075      -0.40075360
C        0.32030410       0.08978806       0.42709204       0.93006536      -0.61933388      -3.18403319
C       -0.90885642      -0.62869041       0.40927493      -0.29274085      -0.89497383       1.07223093
H        0.37233744       0.82610823       1.21183098      -0.17655711       0.63672322       1.06285473
H        1.24391078      -0.62100061       0.67092585      -1.73191237       0.34117730       0.11464131
H       -1.56189373      -0.71838621      -0.48708423       0.73196243       0.20607815       1.01809056
H       -1.08387445      -1.11989442       1.33890846      -0.80127687      -0.67590958       0.30871731
7
Properties=species:S:1:pos:R:3:REF_forces:R:3 REF_energy=-4187.484524526723 pbc="F F F"
O        0.06458649       1.34366141       0.25436267       3.94967028      -4.80481556      -3.33380047
C        0.69073244       0.32639513      -0.28539261      -5.66956558       5.45133052       4.14497216
C       -0.08846746      -1.00202522      -0.00063474       3.97957180       0.74948424       1.68872834
H        0.64981702      -1.80962980      -0.04091220      -0.56011628      -0.30976950      -0.31808269
H        1.67054717       0.54543151      -0.73816285      -0.20314710      -0.79368767      -0.19124327
H       -0.95432673      -1.14685338      -0.54424796      -1.45204474      -0.16117944      -1.43785355
H       -0.35204012      -0.86558628       1.06121657      -0.04065524      -0.13366862      -0.54790755
7
Properties=species:S:1:pos:R:3:REF_forces:R:3 REF_energy=-4185.271440813726 pbc="F F F"
O        0.29468636       0.98627719      -0.00378681      -2.63288703      -1.74951344      -0.00119227
C        0.63689944      -0.31834509       0.00052508       2.95363554      -0.61784307       0.04051485
C       -0.74451571      -0.69271180      -0.00062880      -0.16579882       2.96886448       0.42187096
H        1.19972736      -0.62180684       0.89736999       0.01691687      -0.19054886      -0.09654354
H        1.20169249      -0.62883758      -0.88978775       0.06122954      -0.19368479       0.03822273
H       -1.28941427      -0.70443566      -0.91928866      -0.21962955      -0.11446157      -0.28137293
H       -1.28748045      -0.70536084       0.93348721      -0.01455057      -0.10472802      -0.12144417
7
Properties=species:S:1:pos:R:3:REF_forces:R:3 REF_energy=-4183.806035149209 pbc="F F F"
O        0.57805865       1.19318274       0.22862811      -0.78868658      -3.75063916      -0.58557557
C        0.57931584      -0.25139546       0.00741572       1.08797586       1.95631690       0.33228655
C       -0.79704413      -0.77481486       0.08157733       0.98973055       0.55415183      -0.01242007
H        1.26833582      -0.81712455       0.68253067      -0.54201325       0.35693418       0.46211200
H        1.03003908      -0.54663576      -0.94460319      -0.26465078       0.42255232      -0.50022487
H       -1.12054799      -1.54764823      -0.60484737      -0.05308297       0.29384281      -0.00061785
H       -1.46483744      -0.35102776       0.79244775      -0.43110568       0.17141530       0.30406175
7
Properties=species:S:1:pos:R:3:REF_forces:R:3 REF_energy=-4187.219164311861 pbc="F F F"
O        0.01052629       0.79389862       0.00039332      -0.36949185      -2.82050273      -0.01101967
C        0.72487673      -0.44245325      -0.00180894       0.00990127       1.08897905       0.27921216
C       -0.72889499      -0.45130557      -0.00073130       0.00825358       1.27527257       0.16125145
H        1.24396678      -0.64606607       0.93654582      -0.00718618       0.05897776      -0.37472607
H        1.26259129      -0.64461486      -0.92209685       0.02414675       0.02817375       0.17158576
H       -1.26822872      -0.64469804      -0.92637326       0.08452672       0.15205109       0.26268138
H       -1.27349976      -0.64918613       0.93123815       0.25021908       0.20390810      -0.48902653
7
Properties=species:S:1:pos:R:3:REF_forces:R:3 REF_energy=-4186.74806507952 pbc="F F F"
O       -0.08961976       0.76997174       0.00096894       3.21882724       0.09394768      -0.02174516
C        0.78407554      -0.52240044      -0.00295693      -3.01259495       2.68858935       0.21965098
C       -0.74019757      -0.38055363      -0.00005437       0.22255869      -2.58095671      -0.00365609
H        1.31139457      -0.63650043       0.94752383      -0.24775595       0.01077068      -0.51614145
H        1.31646076      -0.63462625      -0.94479421      -0.21605061      -0.02126812       0.34106272
H       -1.27805094      -0.64345092      -0.91993325       0.02138266      -0.07604699       0.20719630
H       -1.28188925      -0.63352606       0.92009338       0.01390895      -0.10943937      -0.22656700
7
Properties=species:S:1:pos:R:3:REF_forces:R:3 REF_energy=-4184.522258255659 pbc="F F F"
O        0.41408490       1.06391977      -0.01310988      -2.52989375      -1.23010909       0.06618955
C        0.61188311      -0.28163453       0.00138500       3.40413162       0.47158915       0.10994016
C       -0.75652623      -0.75622882       0.00819875      -0.04924342       2.47176626       0.08389970
H        1.20880391      -0.54911861       0.87600438      -0.13623391      -0.56272361       0.34634090
H        1.23333744      -0.54999431      -0.85114885      -0.15587514      -0.70715126      -0.43626023
H       -1.30236316      -0.71313296      -0.91159776      -0.31438330      -0.22438355      -0.22245725
H       -1.28762723      -0.72627003       0.94307816      -0.21370695      -0.21531758       0.05118431
7
Properties=species:S:1:pos:R:3:REF_forces:R:3 REF_energy=-4188.390935590239 pbc="F F F"
O        0.50907493       1.33881805       0.07586773       0.56068451      -2.65714633      -1.14448765
C        0.57769415       0.16493080      -0.28866573      -1.15797801       3.66622590       1.91463502
C       -0.43319135      -0.82376291       0.21111111       0.31631522      -0.85807930      -0.28682911
H        0.07627179      -1.64552929       0.73201041      -0.11809113       0.18050352      -0.11091899
H        1.36436292      -0.15514477      -0.95965074       0.46194736      -0.43424067      -0.47821877
H       -0.96246151      -1.26415178      -0.63360316       0.00977314      -0.05110595      -0.04888850
H       -1.13389317      -0.33188164       0.86448172      -0.06845008       0.16103149       0.16215918
7
Properties=species:S:1:pos:R:3:REF_forces:R:3 REF_energy=-4186.303300608334 pbc="F F F"
O        0.11567004       0.89428153      -0.00156514      -1.93608744      -3.60189397      -0.03430709