
                                 *****************
                                 * O   R   C   A *
                                 *****************

                                            #,                                       
                                            ###                                      
                                            ####                                     
                                            #####                                    
                                            ######                                   
                                           ########,                                 
                                     ,,################,,,,,                         
                               ,,#################################,,                 
                          ,,##########################################,,             
                       ,#########################################, ''#####,          
                    ,#############################################,,   '####,        
                  ,##################################################,,,,####,       
                ,###########''''           ''''###############################       
              ,#####''   ,,,,##########,,,,          '''####'''          '####       
            ,##' ,,,,###########################,,,                        '##       
           ' ,,###''''                  '''############,,,                           
         ,,##''                                '''############,,,,        ,,,,,,###''
      ,#''                                            '''#######################'''  
     '                                                          ''''####''''         
             ,#######,   #######,   ,#######,      ##                                
            ,#'     '#,  ##    ##  ,#'     '#,    #''#        ,####,   ,####,        
            ##       ##  ##   ,#'  ##            #'  '#       #'       #'  '#        
            ##       ##  #######   ##           ,######,      #####,   #    #        
            '#,     ,#'  ##    ##  '#,     ,#' ,#      #,     #,   #   #,  ,#        
             '#######'   ##     ##  '#######'  #'      '#     '####' # '####'        



                #########################################################
                #                        -***-                          #
                #          Department of theory and spectroscopy        #
                #                                                       #
                #                      Frank Neese                      #
                #                                                       #
                #     Directorship, Architecture, Infrastructure        #
                #                    SHARK, DRIVERS                     #
                #        Core code/Algorithms in most modules           #
                #                                                       #
                #        Max Planck Institute fuer Kohlenforschung      #
                #                Kaiser Wilhelm Platz 1                 #
                #                 D-45470 Muelheim/Ruhr                 #
                #                      Germany                          #
                #                                                       #
                #                  All rights reserved                  #
                #                        -***-                          #
                #########################################################


                         Program Version 6.0.0  -   RELEASE  -


 With contributions from (in alphabetic order):
   Daniel Aravena         : Magnetic Suceptibility
   Michael Atanasov       : Ab Initio Ligand Field Theory (pilot matlab implementation)
   Alexander A. Auer      : GIAO ZORA, VPT2 properties, NMR spectrum
   Ute Becker             : All parallelization in ORCA, NUMFREQ, NUMCALC
   Giovanni Bistoni       : ED, misc. LED, open-shell LED, HFLD
   Martin Brehm           : Molecular dynamics
   Dmytro Bykov           : pre 5.0 version of the SCF Hessian
   Marcos Casanova-Páez   : Triplet and SCS-CIS(D). UHF-(DLPNO)-IP/EA/STEOM-CCSD. UHF-CVS-IP/STEOM-CCSD
   Vijay G. Chilkuri      : MRCI spin determinant printing, contributions to CSF-ICE
   Pauline Colinet        : FMM embedding
   Dipayan Datta          : RHF DLPNO-CCSD density
   Achintya Kumar Dutta   : EOM-CC, STEOM-CC
   Nicolas Foglia         : Exact transition moments, OPA infrastructure, MCD improvements
   Dmitry Ganyushin       : Spin-Orbit,Spin-Spin,Magnetic field MRCI
   Miquel Garcia          : C-PCM and meta-GGA Hessian, CCSD/C-PCM, Gaussian charge scheme
   Tiago L. C. Gouveia    : GS-ROHF, GS-ROCIS
   Yang Guo               : DLPNO-NEVPT2, F12-NEVPT2, CIM, IAO-localization
   Andreas Hansen         : Spin unrestricted coupled pair/coupled cluster methods
   Ingolf Harden          : AUTO-CI MPn and infrastructure 
   Benjamin Helmich-Paris : MC-RPA, TRAH-(SCF,CASSCF), AVAS, COSX integrals, SCF dyn. polar.
   Lee Huntington         : MR-EOM, pCC
   Robert Izsak           : Overlap fitted RIJCOSX, COSX-SCS-MP3, EOM
   Riya Kayal             : Wick's Theorem for AUTO-CI, AUTO-CI UHF-CCSDT
   Emily Kempfer          : AUTO-CI, RHF CISDT and CCSDT
   Christian Kollmar      : KDIIS, OOCD, Brueckner-CCSD(T), CCSD density, CASPT2, CASPT2-K, improved NEVPT2
   Axel Koslowski         : Symmetry handling
   Simone Kossmann        : Meta GGA functionals, TD-DFT gradient, OOMP2, (MP2 Hessian; deprecated post 5.0)
   Lucas Lang             : DCDCAS
   Marvin Lechner         : AUTO-CI (C++ implementation), FIC-MRCC
   Spencer Leger          : CASSCF response
   Dagmar Lenk            : GEPOL surface, SMD, ORCA-2-JSON
   Dimitrios Liakos       : Extrapolation schemes; Compound Job, initial MDCI parallelization
   Dimitrios Manganas     : Further ROCIS development; embedding schemes. LFT, Crystal Embedding
   Dimitrios Pantazis     : SARC Basis sets
   Anastasios Papadopoulos: AUTO-CI, single reference methods and gradients
   Taras Petrenko         : pre 6.0 DFT Hessian and TD-DFT gradient, (ASA, deprecated), ECA, 1-Electron XAS/XES, NRVS
   Peter Pinski           : DLPNO-MP2, DLPNO-MP2 Gradient
   Christoph Reimann      : Effective Core Potentials
   Marius Retegan         : Local ZFS, SOC
   Christoph Riplinger    : Optimizer, TS searches, QM/MM, DLPNO-CCSD(T), (RO)-DLPNO pert. Triples
   Michael Roemelt        : Original ROCIS implementation
   Masaaki Saitow         : Open-shell DLPNO-CCSD energy and density
   Barbara Sandhoefer     : DKH picture change effects
   Kantharuban Sivalingam : CASSCF convergence/infrastructure, NEVPT2 and variants, FIC-MRCI
   Bernardo de Souza      : ESD, SOC TD-DFT
   Georgi Stoychev        : AutoAux, RI-MP2 NMR, DLPNO-MP2 response, X2C
   Van Anh Tran           : RI-MP2 g-tensors
   Willem Van den Heuvel  : Paramagnetic NMR
   Zikuan Wang            : NOTCH, Electric field optimization 
   Frank Wennmohs         : Technical directorship and infrastructure
   Hang Xu                : AUTO-CI-Response properties 


 We gratefully acknowledge several colleagues who have allowed us to
 interface, adapt or use parts of their codes:
   Stefan Grimme, W. Hujo, H. Kruse, P. Pracht,  : VdW corrections, initial TS optimization,
                  C. Bannwarth, S. Ehlert,         DFT functionals, gCP, sTDA/sTD-DF
                  L. Wittmann, M. Mueller
   Ed Valeev, F. Pavosevic, A. Kumar             : LibInt (2-el integral package), F12 methods
   Garnet Chan, S. Sharma, J. Yang, R. Olivares  : DMRG
   Ulf Ekstrom                                   : XCFun DFT Library
   Mihaly Kallay                                 : mrcc  (arbitrary order and MRCC methods)
   Frank Weinhold                                : gennbo (NPA and NBO analysis)
   Simon Mueller                                 : openCOSMO-RS
   Christopher J. Cramer and Donald G. Truhlar   : smd solvation model
   Lars Goerigk                                  : TD-DFT with DH, B97 family of functionals
   V. Asgeirsson, H. Jonsson                     : NEB implementation
   FAccTs GmbH                                   : IRC, NEB, NEB-TS, DLPNO-Multilevel, CI-OPT
                                                   MM, QMMM, 2- and 3-layer-ONIOM, Crystal-QMMM,
                                                   LR-CPCM, SF, NACMEs, symmetry and pop. for TD-DFT,
                                                   nearIR, NL-DFT gradient (VV10), updates on ESD,
                                                   ML-optimized integration grids, MBIS, APM,
                                                   GOAT, DOCKER, SOLVATOR, interface openCOSMO-RS
   S Lehtola, MJT Oliveira, MAL Marques          : LibXC Library
   Liviu Ungur et al                             : ANISO software


 Your calculation uses the libint2 library for the computation of 2-el integrals
 For citations please refer to: http://libint.valeyev.net

 Your ORCA version has been built with support for libXC version: 6.2.2
 For citations please refer to: https://libxc.gitlab.io

 This ORCA versions uses:
   CBLAS   interface :  Fast vector & matrix operations
   LAPACKE interface :  Fast linear algebra routines
   SCALAPACK package :  Parallel linear algebra routines
   Shared memory     :  Shared parallel matrices
   BLAS/LAPACK       :  OpenBLAS 0.3.27  USE64BITINT DYNAMIC_ARCH NO_AFFINITY Zen SINGLE_THREADED
        Core in use  :  Zen
   Copyright (c) 2011-2014, The OpenBLAS Project


Your calculation utilizes the atom-pairwise dispersion correction
with the Becke-Johnson damping scheme (D3BJ)


Warning: RI is on but no J-basis has been assigned. Assigning Def2/J (nothing to worry about!)
================================================================================

----- Orbital basis set information -----
Your calculation utilizes the basis: def2-TZVPPD
   F. Weigend and R. Ahlrichs, Phys. Chem. Chem. Phys. 7, 3297 (2005).
   D. Rappoport and F. Furche, J. Chem. Phys. 133, 134105 (2010)
   D. Rappoport, J. Chem. Phys. 155, 124102 (2021).

----- AuxJ basis set information -----
Your calculation utilizes the auxiliary basis: def2/J
   F. Weigend, Phys. Chem. Chem. Phys. 8, 1057 (2006).

================================================================================
                                        WARNINGS
                       Please study these warnings very carefully!
================================================================================

Using LibXC functional ID 531 : wB97M-V exchange-correlation functional
[ 1]  N. Mardirossian and M. Head-Gordon.,  J. Chem. Phys. 144, 214110 (2016)
Using LibXC functional ID 531 : wB97M-V exchange-correlation functional
[ 1]  N. Mardirossian and M. Head-Gordon.,  J. Chem. Phys. 144, 214110 (2016)

WARNING: B97M-V or wB97M-V functional requested.
  ===> : libXC variant has now been activated.
         Any manually given DFX/HFX/RangeSep scaling parameters are IGNORED!

Your calculation utilizes LibXC
 by S Lehtola, C Steigemann, MJT Oliveira & MAL Marques
Please cite in your paper:
 S Lehtola, C Steigemann, MJT Oliveira & MAL Marques, SoftwareX, 7, (2018), 1.
   


WARNING: your system is open-shell and RHF/RKS was chosen
  ===> : WILL SWITCH to UHF/UKS

INFO   : Checking CIS options ...

WARNING: CIS/ROCIS methods need fully converged wavefunctions
  ===> : Setting SCFConvForced true
         You can overwrite this default with %scf ConvForced false 


================================================================================
                                       INPUT FILE
================================================================================
NAME = orca.inp
|  1> ! Engrad def2-TZVPPD wB97M-D3BJ 
|  2> %pal nprocs 8 end%pal nprocs 64 end 
|  3> %tddft 
|  4> Iroot 1 Nroots 3 
|  5> sf true 
|  6> end 
|  7> *xyz 0 3 
|  8> O   2.741822041553462 1.0066420615562444 -0.5793522141619738
|  9> O   -0.5553230467023189 0.9845490774257587 -2.3354510756056874
| 10> O   0.5116199086674353 -2.855959181761223 -1.2119186343692983
| 11> O   -2.800157856073363 -1.535406109033391 0.5953214569888527
| 12> N   0.4833533758883673 -1.9146159827558895 0.7997945817440625
| 13> N   -2.0202255080373215 0.3753629058838975 1.316230404077555
| 14> N   1.635586143534244 -0.925958060929473 -0.8684831949218491
| 15> N   -1.6155779856336008 -0.2949311239069703 -0.833852388871468
| 16> C   1.4761066855057743 0.21486326495635966 1.1579139803658094
| 17> C   -0.7238117044644797 1.740991760009047 -0.12261172901063151
| 18> C   0.6746031273757985 -0.8119261428428604 1.5893429473301808
| 19> C   -1.1220924570611661 1.3636334270728692 1.1346065504699807
| 20> C   1.9409098764804733 1.2083764024958576 2.0717441973191866
| 21> C   -0.3717211873127815 3.0906262766661965 -0.39615765611602033
| 22> C   2.02197830268015 0.15509414285389012 -0.14962888192435497
| 23> C   -0.9330053919570139 0.8272555573939598 -1.208801846903862
| 24> C   0.8509225660677656 -1.9630085917771174 -0.49215937017667394
| 25> C   -2.1770141371127663 -0.5443100313716597 0.36950955591267004
| 26> H   0.5822267188178869 -1.019729587047608 2.640674122697773
| 27> H   -1.153750260189798 2.101919830206303 1.91189147949333
| 28> H   1.88995888759026 2.1928347573227547 1.6137293293280661
| 29> H   1.3965235996718324 1.286618585742525 3.013287136197152
| 30> H   2.9743942741111287 1.138562563864142 2.403970412702952
| 31> H   -1.2020777415752497 3.5174918075605293 -0.9603674139761383
| 32> H   -0.1338170036734174 3.7693599307247307 0.4131684350556818
| 33> H   0.48627420435242613 3.155568692383026 -1.0623640474693088
| 34> H   -0.16482689542615409 -2.627837911946832 1.0689991917855637
| 35> H   -2.4076903769508258 0.20069910234405192 2.2183472308900813
| 36> H   1.9155017932188716 -0.9418408148371556 -1.8343596166938756
| 37> H   -1.748089953345632 -0.9799266082520274 -1.5584229421577522
| 38> *
| 39> 
| 40>                          ****END OF INPUT****
================================================================================

                     *******************************
                     * Energy+Gradient Calculation *
                     *******************************

---------------------------------
CARTESIAN COORDINATES (ANGSTROEM)
---------------------------------
  O      2.741822    1.006642   -0.579352
  O     -0.555323    0.984549   -2.335451
  O      0.511620   -2.855959   -1.211919
  O     -2.800158   -1.535406    0.595321
  N      0.483353   -1.914616    0.799795
  N     -2.020226    0.375363    1.316230
  N      1.635586   -0.925958   -0.868483
  N     -1.615578   -0.294931   -0.833852
  C      1.476107    0.214863    1.157914
  C     -0.723812    1.740992   -0.122612
  C      0.674603   -0.811926    1.589343
  C     -1.122092    1.363633    1.134607
  C      1.940910    1.208376    2.071744
  C     -0.371721    3.090626   -0.396158
  C      2.021978    0.155094   -0.149629
  C     -0.933005    0.827256   -1.208802
  C      0.850923   -1.963009   -0.492159
  C     -2.177014   -0.544310    0.369510
  H      0.582227   -1.019730    2.640674
  H     -1.153750    2.101920    1.911891
  H      1.889959    2.192835    1.613729
  H      1.396524    1.286619    3.013287
  H      2.974394    1.138563    2.403970
  H     -1.202078    3.517492   -0.960367
  H     -0.133817    3.769360    0.413168
  H      0.486274    3.155569   -1.062364
  H     -0.164827   -2.627838    1.068999
  H     -2.407690    0.200699    2.218347
  H      1.915502   -0.941841   -1.834360
  H     -1.748090   -0.979927   -1.558423

----------------------------
CARTESIAN COORDINATES (A.U.)
----------------------------
  NO LB      ZA    FRAG     MASS         X           Y           Z
   0 O     8.0000    0    15.999    5.181293    1.902278   -1.094817
   1 O     8.0000    0    15.999   -1.049408    1.860528   -4.413363
   2 O     8.0000    0    15.999    0.966822   -5.396981   -2.290194
   3 O     8.0000    0    15.999   -5.291531   -2.901497    1.124995
   4 N     7.0000    0    14.007    0.913406   -3.618100    1.511393
   5 N     7.0000    0    14.007   -3.817673    0.709333    2.487315
   6 N     7.0000    0    14.007    3.090810   -1.749807   -1.641195
   7 N     7.0000    0    14.007   -3.053000   -0.557339   -1.575753
   8 C     6.0000    0    12.011    2.789437    0.406033    2.188140
   9 C     6.0000    0    12.011   -1.367806    3.289998   -0.231703
  10 C     6.0000    0    12.011    1.274815   -1.534318    3.003423
  11 C     6.0000    0    12.011   -2.120447    2.576894    2.144096
  12 C     6.0000    0    12.011    3.667788    2.283500    3.915029
  13 C     6.0000    0    12.011   -0.702451    5.840437   -0.748629
  14 C     6.0000    0    12.011    3.820985    0.293085   -0.282758
  15 C     6.0000    0    12.011   -1.763125    1.563286   -2.284304
  16 C     6.0000    0    12.011    1.608011   -3.709549   -0.930046
  17 C     6.0000    0    12.011   -4.113961   -1.028597    0.698272
  18 H     1.0000    0     1.008    1.100249   -1.927010    4.990151
  19 H     1.0000    0     1.008   -2.180272    3.972053    3.612951
  20 H     1.0000    0     1.008    3.571505    4.143857    3.049506
  21 H     1.0000    0     1.008    2.639047    2.431357    5.694287
  22 H     1.0000    0     1.008    5.620791    2.151571    4.542846
  23 H     1.0000    0     1.008   -2.271598    6.647096   -1.814831
  24 H     1.0000    0     1.008   -0.252877    7.123058    0.780775
  25 H     1.0000    0     1.008    0.918925    5.963161   -2.007577
  26 H     1.0000    0     1.008   -0.311478   -4.965894    2.020116
  27 H     1.0000    0     1.008   -4.549875    0.379266    4.192069
  28 H     1.0000    0     1.008    3.619774   -1.779821   -3.466437
  29 H     1.0000    0     1.008   -3.303411   -1.851793   -2.944993

--------------------------------
INTERNAL COORDINATES (ANGSTROEM)
--------------------------------
 O      0   0   0     0.000000000000     0.00000000     0.00000000
 O      1   0   0     3.735711049335     0.00000000     0.00000000
 O      2   1   0     4.141279525148    69.54694605     0.00000000
 O      3   2   1     3.997230182105    66.59874082   116.07597513
 N      3   2   1     2.221242012720    81.33935210    59.53479760
 N      4   3   2     2.186102103259    98.17895320   309.08158330
 N      1   2   3     2.245506138832    59.97177125   359.42649039
 N      4   3   2     2.232609580707    56.94398262   358.34088725
 C      1   2   3     2.290642454843    82.34469192   297.61974945
 C      8   4   3     2.333686432605   119.49700242   238.79264082
 C      5   3   2     1.369630596946   149.48628999   327.75244047
 C      6   4   3     1.347705021326   146.53855590    26.24692435
 C      9   1   2     1.427654028895    93.72771785   232.57559924
 C     10   8   4     1.421375543288   149.81164315   215.43508316
 C      1   2   3     1.194977409205    68.47915125   327.04668604
 C      2   1   3     1.198634093414    80.62041486    75.04399444
 C      3   2   1     1.196052025567    62.87016037    33.29047568
 C      4   3   2     1.192296332421    75.87552686   331.82306052
 H     11   5   3     1.075645347027   113.32265270   186.41101856
 H     12   6   4     1.072492839341   112.79585970   184.23665217
 H     13   9   1     1.086982923030   110.19985366    47.79155004
 H     13   9   1     1.090404220171   116.11026515   168.26806943
 H     13   9   1     1.087813509016   117.39601697   289.86577304
 H     14  10   8     1.090889013391   106.41158914    43.24941983
 H     14  10   8     1.082721799723   120.38513030   166.31380218
 H     14  10   8     1.088211636290   111.70279384   289.09936130
 H      5   3   2     1.000646943966    87.12450806   124.52108550
 H      6   4   3     0.997221759754    90.37861048   227.23151144
 H      7   1   2     1.005744646988    90.00779035    76.24667124
 H      8   4   3     1.005873114190    90.73598996    58.77084029

---------------------------
INTERNAL COORDINATES (A.U.)
---------------------------
 O      0   0   0     0.000000000000     0.00000000     0.00000000
 O      1   0   0     7.059470798706     0.00000000     0.00000000
 O      2   1   0     7.825884146545    69.54694605     0.00000000
 O      3   2   1     7.553670338423    66.59874082   116.07597513
 N      3   2   1     4.197539081202    81.33935210    59.53479760
 N      4   3   2     4.131134275949    98.17895320   309.08158330
 N      1   2   3     4.243391634432    59.97177125   359.42649039
 N      4   3   2     4.219020671506    56.94398262   358.34088725
 C      1   2   3     4.328686910386    82.34469192   297.61974945
 C      8   4   3     4.410028240070   119.49700242   238.79264082
 C      5   3   2     2.588226732867   149.48628999   327.75244047
 C      6   4   3     2.546793399616   146.53855590    26.24692435
 C      9   1   2     2.697875128601    93.72771785   232.57559924
 C     10   8   4     2.686010510267   149.81164315   215.43508316
 C      1   2   3     2.258180039621    68.47915125   327.04668604
 C      2   1   3     2.265090171334    80.62041486    75.04399444
 C      3   2   1     2.260210770243    62.87016037    33.29047568
 C      4   3   2     2.253113538754    75.87552686   331.82306052
 H     11   5   3     2.032675123108   113.32265270   186.41101856
 H     12   6   4     2.026717746946   112.79585970   184.23665217
 H     13   9   1     2.054100036775   110.19985366    47.79155004
 H     13   9   1     2.060565351396   116.11026515   168.26806943
 H     13   9   1     2.055669616821   117.39601697   289.86577304
 H     14  10   8     2.061481477812   106.41158914    43.24941983
 H     14  10   8     2.046047680703   120.38513030   166.31380218
 H     14  10   8     2.056421968335   111.70279384   289.09936130
 H      5   3   2     1.890948680840    87.12450806   124.52108550
 H      6   4   3     1.884476020723    90.37861048   227.23151144
 H      7   1   2     1.900581943465    90.00779035    76.24667124
 H      8   4   3     1.900824711293    90.73598996    58.77084029

---------------------
BASIS SET INFORMATION
---------------------
There are 4 groups of distinct atoms

 Group   1 Type O   : 12s7p3d1f contracted to 6s4p3d1f pattern {621111/4111/111/1}
 Group   2 Type N   : 12s6p3d1f contracted to 6s3p3d1f pattern {621111/411/111/1}
 Group   3 Type C   : 12s6p3d1f contracted to 6s3p3d1f pattern {621111/411/111/1}
 Group   4 Type H   : 5s3p1d contracted to 3s3p1d pattern {311/111/1}

Atom   0O    basis set group =>   1
Atom   1O    basis set group =>   1
Atom   2O    basis set group =>   1
Atom   3O    basis set group =>   1
Atom   4N    basis set group =>   2
Atom   5N    basis set group =>   2
Atom   6N    basis set group =>   2
Atom   7N    basis set group =>   2
Atom   8C    basis set group =>   3
Atom   9C    basis set group =>   3
Atom  10C    basis set group =>   3
Atom  11C    basis set group =>   3
Atom  12C    basis set group =>   3
Atom  13C    basis set group =>   3
Atom  14C    basis set group =>   3
Atom  15C    basis set group =>   3
Atom  16C    basis set group =>   3
Atom  17C    basis set group =>   3
Atom  18H    basis set group =>   4
Atom  19H    basis set group =>   4
Atom  20H    basis set group =>   4
Atom  21H    basis set group =>   4
Atom  22H    basis set group =>   4
Atom  23H    basis set group =>   4
Atom  24H    basis set group =>   4
Atom  25H    basis set group =>   4
Atom  26H    basis set group =>   4
Atom  27H    basis set group =>   4
Atom  28H    basis set group =>   4
Atom  29H    basis set group =>   4
---------------------------------
AUXILIARY/J BASIS SET INFORMATION
---------------------------------
There are 4 groups of distinct atoms

 Group   1 Type O   : 12s5p4d2f1g contracted to 6s4p3d1f1g pattern {711111/2111/211/2/1}
 Group   2 Type N   : 12s5p4d2f1g contracted to 6s4p3d1f1g pattern {711111/2111/211/2/1}
 Group   3 Type C   : 12s5p4d2f1g contracted to 6s4p3d1f1g pattern {711111/2111/211/2/1}
 Group   4 Type H   : 5s2p1d contracted to 3s1p1d pattern {311/2/1}

Atom   0O    basis set group =>   1
Atom   1O    basis set group =>   1
Atom   2O    basis set group =>   1
Atom   3O    basis set group =>   1
Atom   4N    basis set group =>   2
Atom   5N    basis set group =>   2
Atom   6N    basis set group =>   2
Atom   7N    basis set group =>   2
Atom   8C    basis set group =>   3
Atom   9C    basis set group =>   3
Atom  10C    basis set group =>   3
Atom  11C    basis set group =>   3
Atom  12C    basis set group =>   3
Atom  13C    basis set group =>   3
Atom  14C    basis set group =>   3
Atom  15C    basis set group =>   3
Atom  16C    basis set group =>   3
Atom  17C    basis set group =>   3
Atom  18H    basis set group =>   4
Atom  19H    basis set group =>   4
Atom  20H    basis set group =>   4
Atom  21H    basis set group =>   4
Atom  22H    basis set group =>   4
Atom  23H    basis set group =>   4
Atom  24H    basis set group =>   4
Atom  25H    basis set group =>   4
Atom  26H    basis set group =>   4
Atom  27H    basis set group =>   4
Atom  28H    basis set group =>   4
Atom  29H    basis set group =>   4
[1741443304.570752] [ohm:1883964:0]        ib_iface.c:1059 UCX  ERROR ibv_create_cq(cqe=256) failed: Connection timed out
[1741443304.576015] [ohm:1883971:0]        ib_iface.c:1059 UCX  ERROR ibv_create_cq(cqe=256) failed: Connection timed out
[1741443304.587846] [ohm:1883969:0]        ib_iface.c:1059 UCX  ERROR ibv_create_cq(cqe=256) failed: Connection timed out
[1741443304.593643] [ohm:1883963:0]        ib_iface.c:1059 UCX  ERROR ibv_create_cq(cqe=256) failed: Connection timed out
[1741443304.597515] [ohm:1883965:0]        ib_iface.c:1059 UCX  ERROR ibv_create_cq(cqe=256) failed: Connection timed out
[1741443304.637200] [ohm:1883975:0]        ib_iface.c:1059 UCX  ERROR ibv_create_cq(cqe=256) failed: Connection timed out
[1741443304.645364] [ohm:1883967:0]        ib_iface.c:1059 UCX  ERROR ibv_create_cq(cqe=256) failed: Connection timed out
[1741443304.671181] [ohm:1883998:0]        ib_iface.c:1059 UCX  ERROR ibv_create_cq(cqe=256) failed: Connection timed out
[1741443304.681435] [ohm:1883995:0]        ib_iface.c:1059 UCX  ERROR ibv_create_cq(cqe=256) failed: Connection timed out
[1741443304.685889] [ohm:1883962:0]        ib_iface.c:1059 UCX  ERROR ibv_create_cq(cqe=256) failed: Connection timed out
[1741443304.698471] [ohm:1883997:0]        ib_iface.c:1059 UCX  ERROR ibv_create_cq(cqe=256) failed: Connection timed out
[1741443304.700578] [ohm:1883966:0]        ib_iface.c:1059 UCX  ERROR ibv_create_cq(cqe=256) failed: Connection timed out
[1741443304.702365] [ohm:1883961:0]        ib_iface.c:1059 UCX  ERROR ibv_create_cq(cqe=256) failed: Connection timed out
[1741443304.711156] [ohm:1883970:0]        ib_iface.c:1059 UCX  ERROR ibv_create_cq(cqe=256) failed: Connection timed out
[1741443304.712669] [ohm:1884005:0]        ib_iface.c:1059 UCX  ERROR ibv_create_cq(cqe=256) failed: Connection timed out
[1741443304.748189] [ohm:1884103:0]        ib_iface.c:1059 UCX  ERROR ibv_create_cq(cqe=256) failed: Connection timed out
[1741443304.748896] [ohm:1884073:0]        ib_iface.c:1059 UCX  ERROR ibv_create_cq(cqe=256) failed: Connection timed out
[1741443304.751802] [ohm:1883989:0]        ib_iface.c:1059 UCX  ERROR ibv_create_cq(cqe=256) failed: Connection timed out
[1741443304.752355] [ohm:1883977:0]        ib_iface.c:1059 UCX  ERROR ibv_create_cq(cqe=256) failed: Connection timed out
[1741443304.757855] [ohm:1883968:0]        ib_iface.c:1059 UCX  ERROR ibv_create_cq(cqe=256) failed: Connection timed out
[1741443304.759726] [ohm:1884033:0]        ib_iface.c:1059 UCX  ERROR ibv_create_cq(cqe=256) failed: Connection timed out
[1741443304.766825] [ohm:1883976:0]        ib_iface.c:1059 UCX  ERROR ibv_create_cq(cqe=256) failed: Connection timed out
[1741443304.771481] [ohm:1884019:0]        ib_iface.c:1059 UCX  ERROR ibv_create_cq(cqe=256) failed: Connection timed out
[1741443304.772459] [ohm:1884096:0]        ib_iface.c:1059 UCX  ERROR ibv_create_cq(cqe=256) failed: Connection timed out
[1741443304.775953] [ohm:1884031:0]        ib_iface.c:1059 UCX  ERROR ibv_create_cq(cqe=256) failed: Connection timed out
[1741443304.787841] [ohm:1884039:0]        ib_iface.c:1059 UCX  ERROR ibv_create_cq(cqe=256) failed: Connection timed out
[1741443304.788057] [ohm:1884001:0]        ib_iface.c:1059 UCX  ERROR ibv_create_cq(cqe=256) failed: Connection timed out
[1741443304.788518] [ohm:1884098:0]        ib_iface.c:1059 UCX  ERROR ibv_create_cq(cqe=256) failed: Connection timed out
[1741443304.788838] [ohm:1884066:0]        ib_iface.c:1059 UCX  ERROR ibv_create_cq(cqe=256) failed: Connection timed out
[1741443304.809075] [ohm:1884000:0]        ib_iface.c:1059 UCX  ERROR ibv_create_cq(cqe=256) failed: Connection timed out
[1741443304.826785] [ohm:1883993:0]        ib_iface.c:1059 UCX  ERROR ibv_create_cq(cqe=256) failed: Connection timed out
[1741443304.829144] [ohm:1884043:0]        ib_iface.c:1059 UCX  ERROR ibv_create_cq(cqe=256) failed: Connection timed out
[1741443304.831943] [ohm:1883999:0]        ib_iface.c:1059 UCX  ERROR ibv_create_cq(cqe=256) failed: Connection timed out
[1741443304.837270] [ohm:1884076:0]        ib_iface.c:1059 UCX  ERROR ibv_create_cq(cqe=256) failed: Connection timed out
[1741443304.838229] [ohm:1884058:0]        ib_iface.c:1059 UCX  ERROR ibv_create_cq(cqe=256) failed: Connection timed out
[1741443304.838568] [ohm:1884015:0]        ib_iface.c:1059 UCX  ERROR ibv_create_cq(cqe=256) failed: Connection timed out
[1741443304.838573] [ohm:1884027:0]        ib_iface.c:1059 UCX  ERROR ibv_create_cq(cqe=256) failed: Connection timed out
[1741443304.845285] [ohm:1883972:0]        ib_iface.c:1059 UCX  ERROR ibv_create_cq(cqe=256) failed: Connection timed out
[1741443304.855404] [ohm:1884002:0]        ib_iface.c:1059 UCX  ERROR ibv_create_cq(cqe=256) failed: Connection timed out
[1741443304.856565] [ohm:1884044:0]        ib_iface.c:1059 UCX  ERROR ibv_create_cq(cqe=256) failed: Connection timed out
[1741443304.872044] [ohm:1883996:0]        ib_iface.c:1059 UCX  ERROR ibv_create_cq(cqe=256) failed: Connection timed out
[1741443304.874403] [ohm:1884051:0]        ib_iface.c:1059 UCX  ERROR ibv_create_cq(cqe=256) failed: Connection timed out
[1741443304.876381] [ohm:1884021:0]        ib_iface.c:1059 UCX  ERROR ibv_create_cq(cqe=256) failed: Connection timed out
[1741443304.878292] [ohm:1884041:0]        ib_iface.c:1059 UCX  ERROR ibv_create_cq(cqe=256) failed: Connection timed out
[1741443304.884812] [ohm:1884036:0]        ib_iface.c:1059 UCX  ERROR ibv_create_cq(cqe=256) failed: Connection timed out
[1741443304.885168] [ohm:1883980:0]        ib_iface.c:1059 UCX  ERROR ibv_create_cq(cqe=256) failed: Connection timed out
[1741443304.890956] [ohm:1884089:0]        ib_iface.c:1059 UCX  ERROR ibv_create_cq(cqe=256) failed: Connection timed out
[1741443304.894478] [ohm:1884049:0]        ib_iface.c:1059 UCX  ERROR ibv_create_cq(cqe=256) failed: Connection timed out
[1741443304.898610] [ohm:1883974:0]        ib_iface.c:1059 UCX  ERROR ibv_create_cq(cqe=256) failed: Connection timed out
[1741443304.900229] [ohm:1884012:0]        ib_iface.c:1059 UCX  ERROR ibv_create_cq(cqe=256) failed: Connection timed out
[1741443304.901247] [ohm:1884057:0]        ib_iface.c:1059 UCX  ERROR ibv_create_cq(cqe=256) failed: Connection timed out
[1741443304.905894] [ohm:1884008:0]        ib_iface.c:1059 UCX  ERROR ibv_create_cq(cqe=256) failed: Connection timed out
[1741443304.911572] [ohm:1884109:0]        ib_iface.c:1059 UCX  ERROR ibv_create_cq(cqe=256) failed: Connection timed out
[1741443304.912396] [ohm:1884065:0]        ib_iface.c:1059 UCX  ERROR ibv_create_cq(cqe=256) failed: Connection timed out
[1741443304.914243] [ohm:1884025:0]        ib_iface.c:1059 UCX  ERROR ibv_create_cq(cqe=256) failed: Connection timed out
[1741443304.914387] [ohm:1883973:0]        ib_iface.c:1059 UCX  ERROR ibv_create_cq(cqe=256) failed: Connection timed out
[1741443304.914644] [ohm:1884116:0]        ib_iface.c:1059 UCX  ERROR ibv_create_cq(cqe=256) failed: Connection timed out
[1741443304.916363] [ohm:1884093:0]        ib_iface.c:1059 UCX  ERROR ibv_create_cq(cqe=256) failed: Connection timed out
[1741443304.919490] [ohm:1884071:0]        ib_iface.c:1059 UCX  ERROR ibv_create_cq(cqe=256) failed: Connection timed out
[1741443304.919620] [ohm:1883986:0]        ib_iface.c:1059 UCX  ERROR ibv_create_cq(cqe=256) failed: Connection timed out
[1741443304.920828] [ohm:1883994:0]        ib_iface.c:1059 UCX  ERROR ibv_create_cq(cqe=256) failed: Connection timed out
[1741443304.921210] [ohm:1884111:0]        ib_iface.c:1059 UCX  ERROR ibv_create_cq(cqe=256) failed: Connection timed out
[1741443304.933656] [ohm:1884080:0]        ib_iface.c:1059 UCX  ERROR ibv_create_cq(cqe=256) failed: Connection timed out
[1741443304.933754] [ohm:1884084:0]        ib_iface.c:1059 UCX  ERROR ibv_create_cq(cqe=256) failed: Connection timed out


           ************************************************************
           *        Program running with 64 parallel MPI-processes    *
           *              working on a common directory               *
           ************************************************************
------------------------------------------------------------------------------
                             ORCA STARTUP CALCULATIONS
                           -- RI-GTO INTEGRALS CHOSEN --
------------------------------------------------------------------------------
------------------------------------------------------------------------------
                   ___                                                        
                  /   \      - P O W E R E D   B Y -                         
                 /     \                                                     
                 |  |  |   _    _      __       _____    __    __             
                 |  |  |  | |  | |    /  \     |  _  \  |  |  /  |          
                  \  \/   | |  | |   /    \    | | | |  |  | /  /          
                 / \  \   | |__| |  /  /\  \   | |_| |  |  |/  /          
                |  |  |   |  __  | /  /__\  \  |    /   |      \           
                |  |  |   | |  | | |   __   |  |    \   |  |\   \          
                \     /   | |  | | |  |  |  |  | |\  \  |  | \   \       
                 \___/    |_|  |_| |__|  |__|  |_| \__\ |__|  \__/        
                                                                              
                      - O R C A' S   B I G   F R I E N D -                    
                                      &                                       
                       - I N T E G R A L  F E E D E R -                       
                                                                              
 v1 FN, 2020, v2 2021, v3 2022-2024                                           
------------------------------------------------------------------------------


----------------------
SHARK INTEGRAL PACKAGE
----------------------

Number of atoms                             ...     30
Number of basis functions                   ...    882
Number of shells                            ...    322
Maximum angular momentum                    ...      3
Integral batch strategy                     ... SHARK/LIBINT Hybrid
RI-J (if used) integral strategy            ... SPLIT-RIJ (Revised 2003 algorithm where possible)
Printlevel                                  ...      1
Contraction scheme used                     ... SEGMENTED contraction
Prescreening option                         ... SCHWARTZ
   Thresh                                   ... 2.500e-11
   Tcut                                     ... 2.500e-12
   Tpresel                                  ... 2.500e-12 
Coulomb Range Separation                    ... NOT USED
Exchange Range Separation                   ... Long Range
   Mu parameter                             ... 3.000e-01
   Scaling (regular/separated)              ... 1.500e-01 8.500e-01
Multipole approximations                    ... NOT USED
Finite Nucleus Model                        ... NOT USED
CABS basis                                  ... NOT available
Auxiliary Coulomb fitting basis             ... AVAILABLE
   # of basis functions in Aux-J            ...   1014
   # of shells in Aux-J                     ...    330
   Maximum angular momentum in Aux-J        ...      4
Auxiliary J/K fitting basis                 ... NOT available
Auxiliary Correlation fitting basis         ... NOT available
Auxiliary 'external' fitting basis          ... NOT available

Checking pre-screening integrals            ... done (  0.0 sec) Dimension = 322
Check shell pair data                       ... done (  0.0 sec)
Shell pair information
Shell pair cut-off parameter TPreSel        ...   2.5e-12
Total number of shell pairs                 ...     52003
Shell pairs after pre-screening             ...     45491
Total number of primitive shell pairs       ...    129718
Primitive shell pairs kept                  ...     84954
          la=0 lb=0:   8782 shell pairs
          la=1 lb=0:  12007 shell pairs
          la=1 lb=1:   4148 shell pairs
          la=2 lb=0:   8176 shell pairs
          la=2 lb=1:   5645 shell pairs
          la=2 lb=2:   1952 shell pairs
          la=3 lb=0:   2094 shell pairs
          la=3 lb=1:   1504 shell pairs
          la=3 lb=2:   1036 shell pairs
          la=3 lb=3:    147 shell pairs

Calculating one electron integrals          ... done (  0.2 sec)
Calculating RI/J V-Matrix + Cholesky decomp.... done (  0.1 sec)
Calculating Nuclear repulsion               ... done (  0.0 sec) ENN=   1477.479986012352 Eh

Diagonalization of the overlap matrix:
Smallest eigenvalue                        ... 4.051e-07
Time for diagonalization                   ...    0.122 sec
Threshold for overlap eigenvalues          ... 1.000e-07
Number of eigenvalues below threshold      ... 0

IMPORTANT:
Smallest eigenvalue of S below the DiffSThresh (1.000e-06) while
Thresh>1e-12 and/or TCut>1e-13! In order to avoid SCF convergence issues,
Thresh will be set to at least 1e-12 and TCut to at least 1e-13.
This can be turned off by adding %SCF DiffSThresh -1 END to the input.

Time for construction of square roots      ...    0.130 sec
Total time needed                          ...    0.269 sec

-------------------
DFT GRID GENERATION
-------------------

General Integration Accuracy     IntAcc      ... 4.388
Radial Grid Type                 RadialGrid  ... OptM3 with GC (2021)
Angular Grid (max. ang.)         AngularGrid ... 4 (Lebedev-302)
Angular grid pruning method      GridPruning ... 4 (adaptive)
Weight generation scheme         WeightScheme... mBecke (2022)
Basis function cutoff            BFCut       ... 1.0000e-11
Integration weight cutoff        WCut        ... 1.0000e-14
Partially contracted basis set               ... off
Rotationally invariant grid construction     ... off
Angular grids for H and He will be reduced by one unit
Diffuse basis detected: some atoms will have their outermost
                        angular grid increased by 1.

Total number of grid points                  ...   151946
Total number of batches                      ...     2391
Average number of points per batch           ...       63
Average number of grid points per atom       ...     5065

--------------------
COSX GRID GENERATION
--------------------

GRIDX 1
-------
General Integration Accuracy     IntAcc      ... 3.816
Radial Grid Type                 RadialGrid  ... OptM3 with GC (2021)
Angular Grid (max. ang.)         AngularGrid ... 1 (Lebedev-50)
Angular grid pruning method      GridPruning ... 4 (adaptive)
Weight generation scheme         WeightScheme... mBecke (2022)
Basis function cutoff            BFCut       ... 1.0000e-11
Integration weight cutoff        WCut        ... 1.0000e-14
Partially contracted basis set               ... on
Rotationally invariant grid construction     ... off
Angular grids for H and He will be reduced by one unit
Diffuse basis detected: some atoms will have their outermost
                        angular grid increased by 1.

Total number of grid points                  ...    19032
Total number of batches                      ...      166
Average number of points per batch           ...      114
Average number of grid points per atom       ...      634
UseSFitting                                  ... on

GRIDX 2
-------
General Integration Accuracy     IntAcc      ... 4.020
Radial Grid Type                 RadialGrid  ... OptM3 with GC (2021)
Angular Grid (max. ang.)         AngularGrid ... 2 (Lebedev-110)
Angular grid pruning method      GridPruning ... 4 (adaptive)
Weight generation scheme         WeightScheme... mBecke (2022)
Basis function cutoff            BFCut       ... 1.0000e-11
Integration weight cutoff        WCut        ... 1.0000e-14
Partially contracted basis set               ... on
Rotationally invariant grid construction     ... off
Angular grids for H and He will be reduced by one unit
Diffuse basis detected: some atoms will have their outermost
                        angular grid increased by 1.

Total number of grid points                  ...    45804
Total number of batches                      ...      375
Average number of points per batch           ...      122
Average number of grid points per atom       ...     1527
UseSFitting                                  ... on

GRIDX 3
-------
General Integration Accuracy     IntAcc      ... 4.338
Radial Grid Type                 RadialGrid  ... OptM3 with GC (2021)
Angular Grid (max. ang.)         AngularGrid ... 3 (Lebedev-194)
Angular grid pruning method      GridPruning ... 4 (adaptive)
Weight generation scheme         WeightScheme... mBecke (2022)
Basis function cutoff            BFCut       ... 1.0000e-11
Integration weight cutoff        WCut        ... 1.0000e-14
Partially contracted basis set               ... on
Rotationally invariant grid construction     ... off
Angular grids for H and He will be reduced by one unit
Diffuse basis detected: some atoms will have their outermost
                        angular grid increased by 1.

Total number of grid points                  ...   100814
Total number of batches                      ...      803
Average number of points per batch           ...      125
Average number of grid points per atom       ...     3360
UseSFitting                                  ... on
Initializing property integral containers    ... done (  0.0 sec)

SHARK setup successfully completed in   4.1 seconds

Maximum memory used throughout the entire STARTUP-calculation: 80.6 MB
[1741443310.807663] [ohm:1884321:0]        ib_iface.c:1059 UCX  ERROR ibv_create_cq(cqe=256) failed: Connection timed out
[1741443310.855999] [ohm:1884320:0]        ib_iface.c:1059 UCX  ERROR ibv_create_cq(cqe=256) failed: Connection timed out
[1741443310.867918] [ohm:1884324:0]        ib_iface.c:1059 UCX  ERROR ibv_create_cq(cqe=256) failed: Connection timed out
[1741443310.878777] [ohm:1884322:0]        ib_iface.c:1059 UCX  ERROR ibv_create_cq(cqe=256) failed: Connection timed out
[1741443310.885005] [ohm:1884338:0]        ib_iface.c:1059 UCX  ERROR ibv_create_cq(cqe=256) failed: Connection timed out
[1741443310.890459] [ohm:1884326:0]        ib_iface.c:1059 UCX  ERROR ibv_create_cq(cqe=256) failed: Connection timed out
[1741443310.892517] [ohm:1884323:0]        ib_iface.c:1059 UCX  ERROR ibv_create_cq(cqe=256) failed: Connection timed out
[1741443310.902942] [ohm:1884339:0]        ib_iface.c:1059 UCX  ERROR ibv_create_cq(cqe=256) failed: Connection timed out
[1741443310.907995] [ohm:1884325:0]        ib_iface.c:1059 UCX  ERROR ibv_create_cq(cqe=256) failed: Connection timed out
[1741443310.909137] [ohm:1884340:0]        ib_iface.c:1059 UCX  ERROR ibv_create_cq(cqe=256) failed: Connection timed out
[1741443310.918186] [ohm:1884394:0]        ib_iface.c:1059 UCX  ERROR ibv_create_cq(cqe=256) failed: Connection timed out
[1741443310.919215] [ohm:1884377:0]        ib_iface.c:1059 UCX  ERROR ibv_create_cq(cqe=256) failed: Connection timed out
[1741443310.931111] [ohm:1884435:0]        ib_iface.c:1059 UCX  ERROR ibv_create_cq(cqe=256) failed: Connection timed out
[1741443310.934010] [ohm:1884361:0]        ib_iface.c:1059 UCX  ERROR ibv_create_cq(cqe=256) failed: Connection timed out
[1741443310.934724] [ohm:1884342:0]        ib_iface.c:1059 UCX  ERROR ibv_create_cq(cqe=256) failed: Connection timed out
[1741443310.945842] [ohm:1884337:0]        ib_iface.c:1059 UCX  ERROR ibv_create_cq(cqe=256) failed: Connection timed out
[1741443310.956079] [ohm:1884386:0]        ib_iface.c:1059 UCX  ERROR ibv_create_cq(cqe=256) failed: Connection timed out
[1741443310.961686] [ohm:1884405:0]        ib_iface.c:1059 UCX  ERROR ibv_create_cq(cqe=256) failed: Connection timed out
[1741443310.962765] [ohm:1884387:0]        ib_iface.c:1059 UCX  ERROR ibv_create_cq(cqe=256) failed: Connection timed out
[1741443310.962971] [ohm:1884349:0]        ib_iface.c:1059 UCX  ERROR ibv_create_cq(cqe=256) failed: Connection timed out
[1741443310.968640] [ohm:1884427:0]        ib_iface.c:1059 UCX  ERROR ibv_create_cq(cqe=256) failed: Connection timed out
[1741443310.968926] [ohm:1884456:0]        ib_iface.c:1059 UCX  ERROR ibv_create_cq(cqe=256) failed: Connection timed out
[1741443310.969205] [ohm:1884410:0]        ib_iface.c:1059 UCX  ERROR ibv_create_cq(cqe=256) failed: Connection timed out
[1741443311.006327] [ohm:1884369:0]        ib_iface.c:1059 UCX  ERROR ibv_create_cq(cqe=256) failed: Connection timed out
[1741443311.016517] [ohm:1884343:0]        ib_iface.c:1059 UCX  ERROR ibv_create_cq(cqe=256) failed: Connection timed out
[1741443311.020636] [ohm:1884328:0]        ib_iface.c:1059 UCX  ERROR ibv_create_cq(cqe=256) failed: Connection timed out
[1741443311.043838] [ohm:1884452:0]        ib_iface.c:1059 UCX  ERROR ibv_create_cq(cqe=256) failed: Connection timed out
[1741443311.046442] [ohm:1884357:0]        ib_iface.c:1059 UCX  ERROR ibv_create_cq(cqe=256) failed: Connection timed out
[1741443311.053164] [ohm:1884356:0]        ib_iface.c:1059 UCX  ERROR ibv_create_cq(cqe=256) failed: Connection timed out
[1741443311.053995] [ohm:1884363:0]        ib_iface.c:1059 UCX  ERROR ibv_create_cq(cqe=256) failed: Connection timed out
[1741443311.066642] [ohm:1884327:0]        ib_iface.c:1059 UCX  ERROR ibv_create_cq(cqe=256) failed: Connection timed out
[1741443311.067328] [ohm:1884350:0]        ib_iface.c:1059 UCX  ERROR ibv_create_cq(cqe=256) failed: Connection timed out
[1741443311.067443] [ohm:1884417:0]        ib_iface.c:1059 UCX  ERROR ibv_create_cq(cqe=256) failed: Connection timed out
[1741443311.070040] [ohm:1884341:0]        ib_iface.c:1059 UCX  ERROR ibv_create_cq(cqe=256) failed: Connection timed out
[1741443311.070690] [ohm:1884372:0]        ib_iface.c:1059 UCX  ERROR ibv_create_cq(cqe=256) failed: Connection timed out
[1741443311.076968] [ohm:1884392:0]        ib_iface.c:1059 UCX  ERROR ibv_create_cq(cqe=256) failed: Connection timed out
[1741443311.088634] [ohm:1884380:0]        ib_iface.c:1059 UCX  ERROR ibv_create_cq(cqe=256) failed: Connection timed out
[1741443311.100108] [ohm:1884463:0]        ib_iface.c:1059 UCX  ERROR ibv_create_cq(cqe=256) failed: Connection timed out
[1741443311.101475] [ohm:1884466:0]        ib_iface.c:1059 UCX  ERROR ibv_create_cq(cqe=256) failed: Connection timed out
[1741443311.103123] [ohm:1884383:0]        ib_iface.c:1059 UCX  ERROR ibv_create_cq(cqe=256) failed: Connection timed out
[1741443311.105092] [ohm:1884371:0]        ib_iface.c:1059 UCX  ERROR ibv_create_cq(cqe=256) failed: Connection timed out
[1741443311.107970] [ohm:1884345:0]        ib_iface.c:1059 UCX  ERROR ibv_create_cq(cqe=256) failed: Connection timed out
[1741443311.112434] [ohm:1884344:0]        ib_iface.c:1059 UCX  ERROR ibv_create_cq(cqe=256) failed: Connection timed out
[1741443311.113665] [ohm:1884365:0]        ib_iface.c:1059 UCX  ERROR ibv_create_cq(cqe=256) failed: Connection timed out
[1741443311.115206] [ohm:1884370:0]        ib_iface.c:1059 UCX  ERROR ibv_create_cq(cqe=256) failed: Connection timed out
[1741443311.115726] [ohm:1884429:0]        ib_iface.c:1059 UCX  ERROR ibv_create_cq(cqe=256) failed: Connection timed out
[1741443311.115831] [ohm:1884459:0]        ib_iface.c:1059 UCX  ERROR ibv_create_cq(cqe=256) failed: Connection timed out
[1741443311.132196] [ohm:1884470:0]        ib_iface.c:1059 UCX  ERROR ibv_create_cq(cqe=256) failed: Connection timed out
[1741443311.145306] [ohm:1884449:0]        ib_iface.c:1059 UCX  ERROR ibv_create_cq(cqe=256) failed: Connection timed out
[1741443311.147700] [ohm:1884348:0]        ib_iface.c:1059 UCX  ERROR ibv_create_cq(cqe=256) failed: Connection timed out
[1741443311.152625] [ohm:1884366:0]        ib_iface.c:1059 UCX  ERROR ibv_create_cq(cqe=256) failed: Connection timed out
[1741443311.153846] [ohm:1884346:0]        ib_iface.c:1059 UCX  ERROR ibv_create_cq(cqe=256) failed: Connection timed out
[1741443311.158493] [ohm:1884414:0]        ib_iface.c:1059 UCX  ERROR ibv_create_cq(cqe=256) failed: Connection timed out
[1741443311.158483] [ohm:1884420:0]        ib_iface.c:1059 UCX  ERROR ibv_create_cq(cqe=256) failed: Connection timed out
[1741443311.162160] [ohm:1884423:0]        ib_iface.c:1059 UCX  ERROR ibv_create_cq(cqe=256) failed: Connection timed out
[1741443311.162723] [ohm:1884376:0]        ib_iface.c:1059 UCX  ERROR ibv_create_cq(cqe=256) failed: Connection timed out
[1741443311.163237] [ohm:1884364:0]        ib_iface.c:1059 UCX  ERROR ibv_create_cq(cqe=256) failed: Connection timed out
[1741443311.166396] [ohm:1884400:0]        ib_iface.c:1059 UCX  ERROR ibv_create_cq(cqe=256) failed: Connection timed out
[1741443311.166546] [ohm:1884433:0]        ib_iface.c:1059 UCX  ERROR ibv_create_cq(cqe=256) failed: Connection timed out
[1741443311.168760] [ohm:1884367:0]        ib_iface.c:1059 UCX  ERROR ibv_create_cq(cqe=256) failed: Connection timed out
[1741443311.170784] [ohm:1884442:0]        ib_iface.c:1059 UCX  ERROR ibv_create_cq(cqe=256) failed: Connection timed out
[1741443311.170943] [ohm:1884368:0]        ib_iface.c:1059 UCX  ERROR ibv_create_cq(cqe=256) failed: Connection timed out
[1741443311.172096] [ohm:1884444:0]        ib_iface.c:1059 UCX  ERROR ibv_create_cq(cqe=256) failed: Connection timed out
[1741443311.174259] [ohm:1884437:0]        ib_iface.c:1059 UCX  ERROR ibv_create_cq(cqe=256) failed: Connection timed out


           ************************************************************
           *        Program running with 64 parallel MPI-processes    *
           *              working on a common directory               *
           ************************************************************
-------------------------------------------------------------------------------
                                 ORCA GUESS
                   Start orbitals & Density for SCF / CASSCF
-------------------------------------------------------------------------------

------------
SCF SETTINGS
------------
Hamiltonian:
 Density Functional     Method          .... DFT(GTOs)
  Functional kind                       .... Exchange-Correlation
  Functional name                       .... wB97M-V exchange-correlation functional
  Functional family                     .... Hybrid MGGA
  Functional refs                              
    [ 0] N. Mardirossian and M. Head-Gordon.,  J. Chem. Phys. 144, 214110 (2016), doi: 10.1063/1.4952647
  Fraction of HF Exchange (short range) .... 0.1500
  Fraction of HF Exchange (long range)  .... 1.0000
  Range separation parameter mu         .... 0.3000
  Functional external parameters        .... 17
    Parameter  0 _cx00      =  8.500000e-01 : u^00 coefficient for exchange
    Parameter  1 _cx01      =  1.007000e+00 : u^01 coefficient for exchange
    Parameter  2 _cx10      =  2.590000e-01 : u^10 coefficient for exchange
    Parameter  3 _css00     =  4.430000e-01 : u^00 coefficient for same-spin correlation
    Parameter  4 _css04     = -1.437000e+00 : u^04 coefficient for same-spin correlation
    Parameter  5 _css10     = -4.535000e+00 : u^10 coefficient for same-spin correlation
    Parameter  6 _css20     = -3.390000e+00 : u^20 coefficient for same-spin correlation
    Parameter  7 _css43     =  4.278000e+00 : u^43 coefficient for same-spin correlation
    Parameter  8 _cos00     =  1.000000e+00 : u^00 coefficient for opposite-spin correlation
    Parameter  9 _cos10     =  1.358000e+00 : u^10 coefficient for opposite-spin correlation
    Parameter 10 _cos20     =  2.924000e+00 : u^20 coefficient for opposite-spin correlation
    Parameter 11 _cos21     = -8.812000e+00 : u^21 coefficient for opposite-spin correlation
    Parameter 12 _cos60     = -1.390000e+00 : u^60 coefficient for opposite-spin correlation
    Parameter 13 _cos61     =  9.142000e+00 : u^61 coefficient for opposite-spin correlation
    Parameter 14 _alpha     =  1.000000e+00 : fraction of HF exchange
    Parameter 15 _beta      = -8.500000e-01 : fraction of short-range exchange
    Parameter 16 _omega     =  3.000000e-01 : range-separation constant
 Long-range corrected/Screened/Range-Separated Hybrid DFT is turned on
   Amount of maximum screened exact exchange              ....  0.850000
   Range separation parameter mu (erf(mu*r12)/r12)        ....  0.300000
 RI-approximation to the Coulomb term is turned on
   Number of AuxJ basis functions       .... 1014
   RIJ-COSX (HFX calculated with COS-X)).... on


General Settings:
 Integral files         IntName         .... orca
 Hartree-Fock type      HFTyp           .... UHF
 Total Charge           Charge          ....    0
 Multiplicity           Mult            ....    3
 Number of Electrons    NEL             ....  132
 Basis Dimension        Dim             ....  882
 Nuclear Repulsion      ENuc            ....   1477.4799860124 Eh

Convergence Acceleration:
 AO-DIIS                CNVDIIS         .... on
   Start iteration      DIISMaxIt       ....    12
   Startup error        DIISStart       ....  0.200000
   # of expansion vecs  DIISMaxEq       ....     5
   Bias factor          DIISBfac        ....   1.050
   Max. coefficient     DIISMaxC        ....  10.000
 MO-DIIS                CNVKDIIS        .... off
 Trust-Rad. Augm. Hess. CNVTRAH         .... auto
   Auto Start mean grad. ratio tolernc. ....  1.125000
   Auto Start start iteration           ....    50
   Auto Start num. interpolation iter.  ....    10
   Max. Number of Micro iterations      ....    24
   Max. Number of Macro iterations      .... Maxiter - #DIIS iter
   Number of Davidson start vectors     ....     2
   Converg. threshold    (grad. norm)   ....   1.000e-05
   Grad. Scal. Fac. for Micro threshold ....   0.100
   Minimum threshold for Micro iter.    ....   1.000e-02
   NR start threshold (gradient norm)   ....   1.000e-04
   Initial trust radius                 ....   0.400
   Minimum AH scaling param. (alpha)    ....   1.000
   Maximum AH scaling param. (alpha)    .... 1000.000
   Quad. conv. algorithm                .... NR
   White noise on init. David. guess    .... on
   Maximum white noise                  ....   0.010
   Pseudo random numbers                .... off
   Inactive MOs                         .... canonical
   Orbital update algorithm             .... Taylor
   Preconditioner                       .... Diag
   Full preconditioner red. dimension   ....   250
 SOSCF                  CNVSOSCF        .... on
   Start iteration      SOSCFMaxIt      ....   150
   Startup grad/error   SOSCFStart      ....  0.003300
   Hessian update       SOSCFHessUp     .... L-BFGS
 Level Shifting         CNVShift        .... on
   Level shift para.    LevelShift      ....    0.2500
   Turn off err/grad.   ShiftErr        ....    0.0010
 Zerner damping         CNVZerner       .... off
 Static damping         CNVDamp         .... on
   Fraction old density DampFac         ....    0.7000
   Max. Damping (<1)    DampMax         ....    0.9800
   Min. Damping (>=0)   DampMin         ....    0.0000
   Turn off err/grad.   DampErr         ....    0.1000

SCF Procedure:
 Maximum # iterations   MaxIter         ....   125
 SCF integral mode      SCFMode         .... Direct
   Integral package                     .... SHARK and LIBINT hybrid scheme
 Reset frequency        DirectResetFreq ....    20
 Integral Threshold     Thresh          ....  1.000e-12 Eh
 Primitive CutOff       TCut            ....  1.000e-13 Eh

Convergence Tolerance:
 Convergence Check Mode ConvCheckMode   .... Total+1el-Energy
 Convergence forced     ConvForced      .... 1
 Energy Change          TolE            ....  1.000e-08 Eh
 1-El. energy change                    ....  1.000e-05 Eh
 Orbital Gradient       TolG            ....  1.000e-05
 Orbital Rotation angle TolX            ....  1.000e-05
 DIIS Error             TolErr          ....  5.000e-07

------------------------------
INITIAL GUESS: MODEL POTENTIAL
------------------------------
Loading Hartree-Fock densities                     ... done
Calculating cut-offs                               ... done
Initializing the effective Hamiltonian             ... done
Setting up the integral package (SHARK)            ... done
Starting the Coulomb interaction                   ... done (   0.1 sec)
Making the grid                                    ... done (   0.2 sec)
Mapping shells                                     ... done
Starting the XC term evaluation                    ... done (   0.1 sec)
  promolecular density results
     # of electrons  =    131.999611853
     EX              =   -113.766315459
     EC              =     -4.508940966
     EX+EC           =   -118.275256425
Transforming the Hamiltonian                       ... done (   0.1 sec)
Diagonalizing the Hamiltonian                      ... done (   0.1 sec)
Back transforming the eigenvectors                 ... done (   0.1 sec)
Now organizing SCF variables                       ... done
                      ------------------
                      INITIAL GUESS DONE (   1.1 sec)
                      ------------------
             **** ENERGY FILE WAS UPDATED (orca.en.tmp) ****
Finished Guess after   3.5 sec
Maximum memory used throughout the entire GUESS-calculation: 73.0 MB
[1741443315.026485] [ohm:1884671:0]        ib_iface.c:1059 UCX  ERROR ibv_create_cq(cqe=256) failed: Connection timed out
[1741443315.064039] [ohm:1884673:0]        ib_iface.c:1059 UCX  ERROR ibv_create_cq(cqe=256) failed: Connection timed out
[1741443315.096928] [ohm:1884672:0]        ib_iface.c:1059 UCX  ERROR ibv_create_cq(cqe=256) failed: Connection timed out
[1741443315.104090] [ohm:1884670:0]        ib_iface.c:1059 UCX  ERROR ibv_create_cq(cqe=256) failed: Connection timed out
[1741443315.113085] [ohm:1884668:0]        ib_iface.c:1059 UCX  ERROR ibv_create_cq(cqe=256) failed: Connection timed out
[1741443315.118747] [ohm:1884680:0]        ib_iface.c:1059 UCX  ERROR ibv_create_cq(cqe=256) failed: Connection timed out
[1741443315.120364] [ohm:1884669:0]        ib_iface.c:1059 UCX  ERROR ibv_create_cq(cqe=256) failed: Connection timed out
[1741443315.122222] [ohm:1884690:0]        ib_iface.c:1059 UCX  ERROR ibv_create_cq(cqe=256) failed: Connection timed out
[1741443315.127230] [ohm:1884674:0]        ib_iface.c:1059 UCX  ERROR ibv_create_cq(cqe=256) failed: Connection timed out
[1741443315.128470] [ohm:1884691:0]        ib_iface.c:1059 UCX  ERROR ibv_create_cq(cqe=256) failed: Connection timed out
[1741443315.131406] [ohm:1884675:0]        ib_iface.c:1059 UCX  ERROR ibv_create_cq(cqe=256) failed: Connection timed out
[1741443315.133041] [ohm:1884676:0]        ib_iface.c:1059 UCX  ERROR ibv_create_cq(cqe=256) failed: Connection timed out
[1741443315.155542] [ohm:1884677:0]        ib_iface.c:1059 UCX  ERROR ibv_create_cq(cqe=256) failed: Connection timed out
[1741443315.167986] [ohm:1884697:0]        ib_iface.c:1059 UCX  ERROR ibv_create_cq(cqe=256) failed: Connection timed out
[1741443315.174024] [ohm:1884678:0]        ib_iface.c:1059 UCX  ERROR ibv_create_cq(cqe=256) failed: Connection timed out
[1741443315.176398] [ohm:1884693:0]        ib_iface.c:1059 UCX  ERROR ibv_create_cq(cqe=256) failed: Connection timed out
[1741443315.188984] [ohm:1884712:0]        ib_iface.c:1059 UCX  ERROR ibv_create_cq(cqe=256) failed: Connection timed out
[1741443315.191151] [ohm:1884687:0]        ib_iface.c:1059 UCX  ERROR ibv_create_cq(cqe=256) failed: Connection timed out
[1741443315.199342] [ohm:1884688:0]        ib_iface.c:1059 UCX  ERROR ibv_create_cq(cqe=256) failed: Connection timed out
[1741443315.208092] [ohm:1884737:0]        ib_iface.c:1059 UCX  ERROR ibv_create_cq(cqe=256) failed: Connection timed out
[1741443315.222083] [ohm:1884681:0]        ib_iface.c:1059 UCX  ERROR ibv_create_cq(cqe=256) failed: Connection timed out
[1741443315.227912] [ohm:1884685:0]        ib_iface.c:1059 UCX  ERROR ibv_create_cq(cqe=256) failed: Connection timed out
[1741443315.233613] [ohm:1884692:0]        ib_iface.c:1059 UCX  ERROR ibv_create_cq(cqe=256) failed: Connection timed out
[1741443315.238235] [ohm:1884726:0]        ib_iface.c:1059 UCX  ERROR ibv_create_cq(cqe=256) failed: Connection timed out
[1741443315.250698] [ohm:1884797:0]        ib_iface.c:1059 UCX  ERROR ibv_create_cq(cqe=256) failed: Connection timed out
[1741443315.255738] [ohm:1884714:0]        ib_iface.c:1059 UCX  ERROR ibv_create_cq(cqe=256) failed: Connection timed out
[1741443315.256308] [ohm:1884753:0]        ib_iface.c:1059 UCX  ERROR ibv_create_cq(cqe=256) failed: Connection timed out
[1741443315.256452] [ohm:1884730:0]        ib_iface.c:1059 UCX  ERROR ibv_create_cq(cqe=256) failed: Connection timed out
[1741443315.299447] [ohm:1884780:0]        ib_iface.c:1059 UCX  ERROR ibv_create_cq(cqe=256) failed: Connection timed out
[1741443315.308788] [ohm:1884767:0]        ib_iface.c:1059 UCX  ERROR ibv_create_cq(cqe=256) failed: Connection timed out
[1741443315.315476] [ohm:1884718:0]        ib_iface.c:1059 UCX  ERROR ibv_create_cq(cqe=256) failed: Connection timed out
[1741443315.315674] [ohm:1884758:0]        ib_iface.c:1059 UCX  ERROR ibv_create_cq(cqe=256) failed: Connection timed out
[1741443315.316436] [ohm:1884760:0]        ib_iface.c:1059 UCX  ERROR ibv_create_cq(cqe=256) failed: Connection timed out
[1741443315.327388] [ohm:1884794:0]        ib_iface.c:1059 UCX  ERROR ibv_create_cq(cqe=256) failed: Connection timed out
[1741443315.335223] [ohm:1884694:0]        ib_iface.c:1059 UCX  ERROR ibv_create_cq(cqe=256) failed: Connection timed out
[1741443315.335341] [ohm:1884784:0]        ib_iface.c:1059 UCX  ERROR ibv_create_cq(cqe=256) failed: Connection timed out
[1741443315.351236] [ohm:1884706:0]        ib_iface.c:1059 UCX  ERROR ibv_create_cq(cqe=256) failed: Connection timed out
[1741443315.355746] [ohm:1884801:0]        ib_iface.c:1059 UCX  ERROR ibv_create_cq(cqe=256) failed: Connection timed out
[1741443315.356105] [ohm:1884695:0]        ib_iface.c:1059 UCX  ERROR ibv_create_cq(cqe=256) failed: Connection timed out
[1741443315.359008] [ohm:1884683:0]        ib_iface.c:1059 UCX  ERROR ibv_create_cq(cqe=256) failed: Connection timed out
[1741443315.359799] [ohm:1884782:0]        ib_iface.c:1059 UCX  ERROR ibv_create_cq(cqe=256) failed: Connection timed out
[1741443315.367298] [ohm:1884689:0]        ib_iface.c:1059 UCX  ERROR ibv_create_cq(cqe=256) failed: Connection timed out
[1741443315.368970] [ohm:1884684:0]        ib_iface.c:1059 UCX  ERROR ibv_create_cq(cqe=256) failed: Connection timed out
[1741443315.374023] [ohm:1884787:0]        ib_iface.c:1059 UCX  ERROR ibv_create_cq(cqe=256) failed: Connection timed out
[1741443315.374791] [ohm:1884682:0]        ib_iface.c:1059 UCX  ERROR ibv_create_cq(cqe=256) failed: Connection timed out
[1741443315.383588] [ohm:1884744:0]        ib_iface.c:1059 UCX  ERROR ibv_create_cq(cqe=256) failed: Connection timed out
[1741443315.384609] [ohm:1884755:0]        ib_iface.c:1059 UCX  ERROR ibv_create_cq(cqe=256) failed: Connection timed out
[1741443315.386216] [ohm:1884720:0]        ib_iface.c:1059 UCX  ERROR ibv_create_cq(cqe=256) failed: Connection timed out
[1741443315.387323] [ohm:1884748:0]        ib_iface.c:1059 UCX  ERROR ibv_create_cq(cqe=256) failed: Connection timed out
[1741443315.393098] [ohm:1884686:0]        ib_iface.c:1059 UCX  ERROR ibv_create_cq(cqe=256) failed: Connection timed out
[1741443315.396145] [ohm:1884804:0]        ib_iface.c:1059 UCX  ERROR ibv_create_cq(cqe=256) failed: Connection timed out
[1741443315.396813] [ohm:1884728:0]        ib_iface.c:1059 UCX  ERROR ibv_create_cq(cqe=256) failed: Connection timed out
[1741443315.396984] [ohm:1884679:0]        ib_iface.c:1059 UCX  ERROR ibv_create_cq(cqe=256) failed: Connection timed out
[1741443315.400211] [ohm:1884699:0]        ib_iface.c:1059 UCX  ERROR ibv_create_cq(cqe=256) failed: Connection timed out
[1741443315.400887] [ohm:1884771:0]        ib_iface.c:1059 UCX  ERROR ibv_create_cq(cqe=256) failed: Connection timed out
[1741443315.401525] [ohm:1884763:0]        ib_iface.c:1059 UCX  ERROR ibv_create_cq(cqe=256) failed: Connection timed out
[1741443315.401943] [ohm:1884806:0]        ib_iface.c:1059 UCX  ERROR ibv_create_cq(cqe=256) failed: Connection timed out
[1741443315.402310] [ohm:1884793:0]        ib_iface.c:1059 UCX  ERROR ibv_create_cq(cqe=256) failed: Connection timed out
[1741443315.403406] [ohm:1884800:0]        ib_iface.c:1059 UCX  ERROR ibv_create_cq(cqe=256) failed: Connection timed out
[1741443315.404028] [ohm:1884696:0]        ib_iface.c:1059 UCX  ERROR ibv_create_cq(cqe=256) failed: Connection timed out
[1741443315.403830] [ohm:1884705:0]        ib_iface.c:1059 UCX  ERROR ibv_create_cq(cqe=256) failed: Connection timed out
[1741443315.405069] [ohm:1884738:0]        ib_iface.c:1059 UCX  ERROR ibv_create_cq(cqe=256) failed: Connection timed out
[1741443315.405634] [ohm:1884701:0]        ib_iface.c:1059 UCX  ERROR ibv_create_cq(cqe=256) failed: Connection timed out
[1741443315.407180] [ohm:1884774:0]        ib_iface.c:1059 UCX  ERROR ibv_create_cq(cqe=256) failed: Connection timed out


           ************************************************************
           *        Program running with 64 parallel MPI-processes    *
           *              working on a common directory               *
           ************************************************************

-------------------------------------------------------------------------------------------
                                      ORCA LEAN-SCF
                              memory conserving SCF solver
-------------------------------------------------------------------------------------------

----------------------------------------D-I-I-S--------------------------------------------
Iteration    Energy (Eh)           Delta-E    RMSDP     MaxDP     DIISErr   Damp  Time(sec)
-------------------------------------------------------------------------------------------
               ***  Starting incremental Fock matrix formation  ***
    1    -908.0438326452424462     0.00e+00  1.92e-03  3.27e-01  1.44e-01  0.700   7.8
    2    -908.3159307724647533    -2.72e-01  1.55e-03  2.27e-01  7.07e-02  0.700   6.7
                               ***Turning on AO-DIIS***
    3    -908.4404840978538687    -1.25e-01  1.08e-03  1.63e-01  2.78e-02  0.700   6.0
    4    -908.5159733470725314    -7.55e-02  2.48e-03  3.79e-01  1.94e-02  0.000   5.9
    5    -908.6836467960854407    -1.68e-01  2.25e-04  3.28e-02  4.04e-03  0.000   6.0
                              *** Initializing SOSCF ***
---------------------------------------S-O-S-C-F--------------------------------------
Iteration    Energy (Eh)           Delta-E    RMSDP     MaxDP     MaxGrad    Time(sec)
--------------------------------------------------------------------------------------
    6    -908.6846879703969080    -1.04e-03  1.26e-04  1.62e-02  1.82e-03     6.7
               *** Restarting incremental Fock matrix formation ***
    7    -908.6852373550716493    -5.49e-04  2.57e-04  3.61e-02  5.25e-03     7.4
               *** Scaled step length from 18.500253 to 0.200000 ***
Curvature condition for BFGS not met. Restarting diagonal Hessian.
    8    -908.6861670392138421    -9.30e-04  6.39e-03  6.34e-01  6.32e-03     7.5
    9    -908.6812961191719751     4.87e-03  5.00e-03  6.34e-01  7.55e-03     7.2
   10    -908.6833862041337397    -2.09e-03  2.50e-03  2.40e-01  5.05e-03     7.0
   11    -908.6842659891351559    -8.80e-04  9.00e-04  1.16e-01  3.47e-03     6.9
   12    -908.6845620968440471    -2.96e-04  1.40e-03  1.41e-01  3.77e-03     6.8
               *** Scaled step length from 1.989128 to 0.200000 ***
   13    -908.6851653227924999    -6.03e-04  3.94e-03  6.05e-01  5.59e-03     6.8
               *** Scaled step length from 2.838305 to 0.200000 ***
   14    -908.6871758061367927    -2.01e-03  5.73e-03  1.37e+00  1.05e-02     7.0
   15    -908.6883179442154415    -1.14e-03  3.10e-04  6.76e-02  1.07e-02     7.0
               *** Scaled step length from 0.466736 to 0.200000 ***
   16    -908.6894247566713148    -1.11e-03  2.28e-03  5.34e-01  1.05e-02     6.6
   17    -908.6954184481521679    -5.99e-03  8.22e-03  1.32e+00  8.04e-03     6.9
   18    -908.6994172090082884    -4.00e-03  1.74e-03  1.88e-01  5.52e-03     7.1
   19    -908.7010209177217348    -1.60e-03  1.12e-03  2.33e-01  3.47e-03     6.9
   20    -908.7015629352356427    -5.42e-04  8.22e-04  1.20e-01  3.10e-03     6.9
   21    -908.7021325305411210    -5.70e-04  4.75e-04  7.86e-02  7.82e-04     6.8
   22    -908.7021590003344045    -2.65e-05  1.83e-04  2.68e-02  6.19e-04     6.7
   23    -908.7022049113636513    -4.59e-05  4.37e-05  7.69e-03  3.37e-04     6.5
   24    -908.7022090860411936    -4.17e-06  2.39e-05  4.14e-03  2.38e-04     6.3
   25    -908.7022121019165297    -3.02e-06  1.10e-05  2.21e-03  1.31e-04     6.2
   26    -908.7022126755330191    -5.74e-07  6.54e-06  1.12e-03  6.88e-05     6.1
               *** Restarting incremental Fock matrix formation ***
   27    -908.7022128705077648    -1.95e-07  5.09e-06  1.02e-03  3.15e-05     7.3
   28    -908.7022129341942218    -6.37e-08  4.51e-06  8.42e-04  1.77e-05     5.8
   29    -908.7022129721351575    -3.79e-08  2.35e-06  5.56e-04  1.12e-05     5.7
   30    -908.7022129857921300    -1.37e-08  3.81e-06  9.36e-04  6.81e-06     5.5
   31    -908.7022129916965696    -5.90e-09  2.98e-06  8.46e-04  2.67e-06     5.5
                 **** Energy Check signals convergence ****

               *****************************************************
               *                     SUCCESS                       *
               *           SCF CONVERGED AFTER  31 CYCLES          *
               *****************************************************

Recomputing exchange energy using gridx3       ... done (    8.152 sec)
Old exchange energy                            :    -35.100359698 Eh
New exchange energy                            :    -35.100361379 Eh
Exchange energy change after final integration :     -0.000001681 Eh
Total energy after final integration           :   -908.702214673 Eh
             **** ENERGY FILE WAS UPDATED (orca.en.tmp) ****

----------------
TOTAL SCF ENERGY
----------------

Total Energy       :       -908.70221467315355 Eh          -24727.04436 eV

Components:
Nuclear Repulsion  :       1477.47998601235190 Eh           40204.27437 eV
Electronic Energy  :      -2386.18219900404847 Eh          -64931.31868 eV
One Electron Energy:      -4171.95321714450074 Eh         -113524.61852 eV
Two Electron Energy:       1785.77101814045227 Eh           48593.29984 eV

Virial components:
Potential Energy   :      -1816.26253743284724 Eh          -49423.01626 eV
Kinetic Energy     :        907.56032275969369 Eh           24695.97190 eV
Virial Ratio       :          2.00125819946600

DFT components:
N(Alpha)           :       66.999989767367 electrons
N(Beta)            :       64.999996971999 electrons
N(Total)           :      131.999986739366 electrons
E(XC)              :      -86.561875665356 Eh       

---------------
SCF CONVERGENCE
---------------

  Last Energy change         ...    5.9044e-09  Tolerance :   1.0000e-08
  Last MAX-Density change    ...    8.4574e-04  Tolerance :   1.0000e-07
  Last RMS-Density change    ...    2.9757e-06  Tolerance :   5.0000e-09
  Last DIIS Error            ...    1.8190e-03  Tolerance :   5.0000e-07
  Last Orbital Gradient      ...    2.6719e-06  Tolerance :   1.0000e-05
  Last Orbital Rotation      ...    2.1758e-05  Tolerance :   1.0000e-05


----------------------
UHF SPIN CONTAMINATION
----------------------

Warning: in a DFT calculation there is little theoretical justification to 
         calculate <S**2> as in Hartree-Fock theory. We will do it anyways
         but you should keep in mind that the values have only limited relevance

Expectation value of <S**2>     :     2.008943
Ideal value S*(S+1) for S=1.0   :     2.000000
Deviation                       :     0.008943

----------------
ORBITAL ENERGIES
----------------
                 SPIN UP ORBITALS
  NO   OCC          E(Eh)            E(eV) 
   0   1.0000     -19.322993      -525.8054 
   1   1.0000     -19.319636      -525.7140 
   2   1.0000     -19.315800      -525.6096 
   3   1.0000     -19.312264      -525.5134 
   4   1.0000     -14.582656      -396.8143 
   5   1.0000     -14.577461      -396.6729 
   6   1.0000     -14.562334      -396.2613 
   7   1.0000     -14.555725      -396.0814 
   8   1.0000     -10.500725      -285.7393 
   9   1.0000     -10.499676      -285.7107 
  10   1.0000     -10.463913      -284.7376 
  11   1.0000     -10.459152      -284.6080 
  12   1.0000     -10.434200      -283.9290 
  13   1.0000     -10.398149      -282.9480 
  14   1.0000     -10.395107      -282.8652 
  15   1.0000     -10.375945      -282.3438 
  16   1.0000     -10.358540      -281.8702 
  17   1.0000     -10.351885      -281.6891 
  18   1.0000      -1.244529       -33.8654 
  19   1.0000      -1.233646       -33.5692 
  20   1.0000      -1.201792       -32.7024 
  21   1.0000      -1.197761       -32.5927 
  22   1.0000      -1.136643       -30.9296 
  23   1.0000      -1.127064       -30.6690 
  24   1.0000      -1.079654       -29.3789 
  25   1.0000      -1.077570       -29.3222 
  26   1.0000      -0.982992       -26.7486 
  27   1.0000      -0.964164       -26.2362 
  28   1.0000      -0.859569       -23.3900 
  29   1.0000      -0.854933       -23.2639 
  30   1.0000      -0.824236       -22.4286 
  31   1.0000      -0.817758       -22.2523 
  32   1.0000      -0.805253       -21.9121 
  33   1.0000      -0.800063       -21.7708 
  34   1.0000      -0.707671       -19.2567 
  35   1.0000      -0.703827       -19.1521 
  36   1.0000      -0.700795       -19.0696 
  37   1.0000      -0.695387       -18.9224 
  38   1.0000      -0.659443       -17.9443 
  39   1.0000      -0.640741       -17.4354 
  40   1.0000      -0.638450       -17.3731 
  41   1.0000      -0.609017       -16.5722 
  42   1.0000      -0.596244       -16.2246 
  43   1.0000      -0.592823       -16.1315 
  44   1.0000      -0.583482       -15.8774 
  45   1.0000      -0.570108       -15.5134 
  46   1.0000      -0.564246       -15.3539 
  47   1.0000      -0.556868       -15.1532 
  48   1.0000      -0.551311       -15.0019 
  49   1.0000      -0.549198       -14.9444 
  50   1.0000      -0.539343       -14.6763 
  51   1.0000      -0.537695       -14.6314 
  52   1.0000      -0.534914       -14.5558 
  53   1.0000      -0.513602       -13.9758 
  54   1.0000      -0.504045       -13.7158 
  55   1.0000      -0.493009       -13.4155 
  56   1.0000      -0.491428       -13.3724 
  57   1.0000      -0.469070       -12.7640 
  58   1.0000      -0.418149       -11.3784 
  59   1.0000      -0.411445       -11.1960 
  60   1.0000      -0.411125       -11.1873 
  61   1.0000      -0.400449       -10.8968 
  62   1.0000      -0.388035       -10.5590 
  63   1.0000      -0.382966       -10.4210 
  64   1.0000      -0.378431       -10.2976 
  65   1.0000      -0.333596        -9.0776 
  66   1.0000      -0.223202        -6.0736 
  67   0.0000       0.007738         0.2105 
  68   0.0000       0.012116         0.3297 
  69   0.0000       0.030819         0.8386 
  70   0.0000       0.037038         1.0078 
  71   0.0000       0.039448         1.0734 
  72   0.0000       0.055815         1.5188 
  73   0.0000       0.059913         1.6303 
  74   0.0000       0.063314         1.7229 
  75   0.0000       0.067791         1.8447 
  76   0.0000       0.068302         1.8586 
  77   0.0000       0.077515         2.1093 

                 SPIN DOWN ORBITALS
  NO   OCC          E(Eh)            E(eV) 
   0   1.0000     -19.321063      -525.7528 
   1   1.0000     -19.315551      -525.6029 
   2   1.0000     -19.314964      -525.5869 
   3   1.0000     -19.311893      -525.5033 
   4   1.0000     -14.579132      -396.7184 
   5   1.0000     -14.577109      -396.6633 
   6   1.0000     -14.562360      -396.2620 
   7   1.0000     -14.554812      -396.0566 
   8   1.0000     -10.500848      -285.7426 
   9   1.0000     -10.499684      -285.7109 
  10   1.0000     -10.463872      -284.7364 
  11   1.0000     -10.459240      -284.6104 
  12   1.0000     -10.433439      -283.9083 
  13   1.0000     -10.388287      -282.6797 
  14   1.0000     -10.383894      -282.5601 
  15   1.0000     -10.375655      -282.3359 
  16   1.0000     -10.358844      -281.8785 
  17   1.0000     -10.351815      -281.6872 
  18   1.0000      -1.240607       -33.7586 
  19   1.0000      -1.233051       -33.5530 
  20   1.0000      -1.197603       -32.5884 
  21   1.0000      -1.194571       -32.5059 
  22   1.0000      -1.128601       -30.7108 
  23   1.0000      -1.125290       -30.6207 
  24   1.0000      -1.077251       -29.3135 
  25   1.0000      -1.074966       -29.2513 
  26   1.0000      -0.967247       -26.3201 
  27   1.0000      -0.956911       -26.0389 
  28   1.0000      -0.854135       -23.2422 
  29   1.0000      -0.846214       -23.0267 
  30   1.0000      -0.819047       -22.2874 
  31   1.0000      -0.812264       -22.1028 
  32   1.0000      -0.800053       -21.7705 
  33   1.0000      -0.799324       -21.7507 
  34   1.0000      -0.701065       -19.0769 
  35   1.0000      -0.700136       -19.0517 
  36   1.0000      -0.694504       -18.8984 
  37   1.0000      -0.690692       -18.7947 
  38   1.0000      -0.649045       -17.6614 
  39   1.0000      -0.637278       -17.3412 
  40   1.0000      -0.634591       -17.2681 
  41   1.0000      -0.600964       -16.3531 
  42   1.0000      -0.591889       -16.1061 
  43   1.0000      -0.587414       -15.9843 
  44   1.0000      -0.567317       -15.4375 
  45   1.0000      -0.564371       -15.3573 
  46   1.0000      -0.561382       -15.2760 
  47   1.0000      -0.549851       -14.9622 
  48   1.0000      -0.548073       -14.9138 
  49   1.0000      -0.541566       -14.7368 
  50   1.0000      -0.535788       -14.5795 
  51   1.0000      -0.529971       -14.4212 
  52   1.0000      -0.523805       -14.2535 
  53   1.0000      -0.507466       -13.8089 
  54   1.0000      -0.495575       -13.4853 
  55   1.0000      -0.492554       -13.4031 
  56   1.0000      -0.471966       -12.8429 
  57   1.0000      -0.450128       -12.2486 
  58   1.0000      -0.413890       -11.2625 
  59   1.0000      -0.410590       -11.1727 
  60   1.0000      -0.399135       -10.8610 
  61   1.0000      -0.389864       -10.6087 
  62   1.0000      -0.382256       -10.4017 
  63   1.0000      -0.380944       -10.3660 
  64   1.0000      -0.336246        -9.1497 
  65   0.0000      -0.091978        -2.5029 
  66   0.0000       0.008118         0.2209 
  67   0.0000       0.013861         0.3772 
  68   0.0000       0.028378         0.7722 
  69   0.0000       0.036014         0.9800 
[...]
[1741443696.931763] [ohm:1887504:0]        ib_iface.c:1059 UCX  ERROR ibv_create_cq(cqe=256) failed: Connection timed out
[1741443696.934194] [ohm:1887452:0]        ib_iface.c:1059 UCX  ERROR ibv_create_cq(cqe=256) failed: Connection timed out
[1741443696.934877] [ohm:1887461:0]        ib_iface.c:1059 UCX  ERROR ibv_create_cq(cqe=256) failed: Connection timed out
[1741443696.935329] [ohm:1887488:0]        ib_iface.c:1059 UCX  ERROR ibv_create_cq(cqe=256) failed: Connection timed out
[1741443696.935849] [ohm:1887466:0]        ib_iface.c:1059 UCX  ERROR ibv_create_cq(cqe=256) failed: Connection timed out
[1741443696.935861] [ohm:1887449:0]        ib_iface.c:1059 UCX  ERROR ibv_create_cq(cqe=256) failed: Connection timed out
[1741443696.936855] [ohm:1887445:0]        ib_iface.c:1059 UCX  ERROR ibv_create_cq(cqe=256) failed: Connection timed out
[1741443696.937338] [ohm:1887486:0]        ib_iface.c:1059 UCX  ERROR ibv_create_cq(cqe=256) failed: Connection timed out
[1741443696.937983] [ohm:1887464:0]        ib_iface.c:1059 UCX  ERROR ibv_create_cq(cqe=256) failed: Connection timed out
[1741443696.938924] [ohm:1887438:0]        ib_iface.c:1059 UCX  ERROR ibv_create_cq(cqe=256) failed: Connection timed out


           ************************************************************
           *        Program running with 64 parallel MPI-processes    *
           *              working on a common directory               *
           ************************************************************

------------------------------------------------------------------------------
                              ORCA PROPERTY CALCULATIONS
------------------------------------------------------------------------------

GBWName                                 ... orca.gbw
Number of atoms                         ...     30
Number of basis functions               ...    882
Max core memory                         ...   1024 MB

Electric properties:
Dipole moment                           ... YES
Quadrupole moment                       ...  NO
Static polarizability (Dipole/Dipole)   ...  NO
Static polarizability (Dipole/Quad.)    ...  NO
Static polarizability (Quad./Quad.)     ...  NO
Static polarizability (Velocity)        ...  NO

Atomic electric properties:
Dipole moment                           ...  NO
Quadrupole moment                       ...  NO
Static polarizability                   ...  NO

Choice of electric origin               ... Center of mass
Position of electric origin             ...    -0.005729    -0.013009     0.050435

General magnetic properties:
Magnetizability                         ...  NO

EPR properties:
g-Tensor (aka g-matrix)                 ...  NO
Zero-Field splitting spin-orbit         ...  NO
Zero-field splitting spin-spin          ...  NO
Hyperfine couplings                     ...  NO (   0 nuclei)
Quadrupole couplings                    ...  NO (   0 nuclei)
Contact density                         ...  NO (   0 nuclei)

NMR properties:
Chemical shifts                         ...  NO (   0 nuclei)
Spin-rotation constants                 ...  NO (   0 nuclei)
Spin-spin couplings                     ...  NO (   0 nuclei,    0 pairs)

Choice of magnetic origin               ... GIAO
Position of magnetic origin             ...     0.000000     0.000000     0.000000

Properties with geometric perturbations:
SCF Hessian                             ...  NO
IR spectrum                             ...  NO
VCD spectrum                            ...  NO
X-ray spectroscopy properties:
SCF XES/XAS/RIXS spectra                ...  NO


-------------
DIPOLE MOMENT
-------------

Method             : SCF
Type of density    : Electron Density
Multiplicity       :   3
Irrep              :   0
Energy             :  -908.7022146731535486 Eh
Relativity type    : 
Basis              : AO
                                X                 Y                 Z
Electronic contribution:     -2.746782585     -10.163899134      -6.349688418
Nuclear contribution   :      2.308622199      11.091955221       8.905860904
                        -----------------------------------------
Total Dipole Moment    :     -0.438160386       0.928056087       2.556172486
                        -----------------------------------------
Magnitude (a.u.)       :      2.754503659
Magnitude (Debye)      :      7.001391890



--------------------
Rotational spectrum 
--------------------
 
Rotational constants in cm-1:             0.018002             0.016832             0.013709 
Rotational constants in MHz :           539.678353           504.599989           410.972429 

Dipole components along the rotational axes: 
x,y,z [a.u.] :    -0.234698     1.192606     2.471821 
x,y,z [Debye]:    -0.596554     3.031364     6.282869 

 

-------------
DIPOLE MOMENT
-------------

Method             : TDA/CIS
Type of density    : Electron Density
Level              : Relaxed density
State              :   1
Multiplicity       :   3
Irrep              :   0
Energy             :     0.0000000000000000 Eh
Relativity type    : 
Basis              : AO
                                X                 Y                 Z
Electronic contribution:     -2.849087725     -10.249891536      -6.116540064
Nuclear contribution   :      2.308622199      11.091955221       8.905860904
                        -----------------------------------------
Total Dipole Moment    :     -0.540465526       0.842063685       2.789320841
                        -----------------------------------------
Magnitude (a.u.)       :      2.963357047
Magnitude (Debye)      :      7.532255015



--------------------
Rotational spectrum 
--------------------
 
Rotational constants in cm-1:             0.018002             0.016832             0.013709 
Rotational constants in MHz :           539.678353           504.599989           410.972429 

Dipole components along the rotational axes: 
x,y,z [a.u.] :    -0.350090     1.146442     2.710091 
x,y,z [Debye]:    -0.889858     2.914024     6.888504 

 

Dipole moment calculation done in   0.2 sec 

Maximum memory used throughout the entire PROP-calculation: 82.1 MB
[1741443699.413194] [ohm:1887783:0]        ib_iface.c:1059 UCX  ERROR ibv_create_cq(cqe=256) failed: Connection timed out
[1741443699.417240] [ohm:1887780:0]        ib_iface.c:1059 UCX  ERROR ibv_create_cq(cqe=256) failed: Connection timed out
[1741443699.419256] [ohm:1887810:0]        ib_iface.c:1059 UCX  ERROR ibv_create_cq(cqe=256) failed: Connection timed out
[1741443699.420441] [ohm:1887778:0]        ib_iface.c:1059 UCX  ERROR ibv_create_cq(cqe=256) failed: Connection timed out
[1741443699.429318] [ohm:1887799:0]        ib_iface.c:1059 UCX  ERROR ibv_create_cq(cqe=256) failed: Connection timed out
[1741443699.494317] [ohm:1887797:0]        ib_iface.c:1059 UCX  ERROR ibv_create_cq(cqe=256) failed: Connection timed out
[1741443699.504402] [ohm:1887779:0]        ib_iface.c:1059 UCX  ERROR ibv_create_cq(cqe=256) failed: Connection timed out
[1741443699.544076] [ohm:1887794:0]        ib_iface.c:1059 UCX  ERROR ibv_create_cq(cqe=256) failed: Connection timed out
[1741443699.551181] [ohm:1887786:0]        ib_iface.c:1059 UCX  ERROR ibv_create_cq(cqe=256) failed: Connection timed out
[1741443699.599833] [ohm:1887793:0]        ib_iface.c:1059 UCX  ERROR ibv_create_cq(cqe=256) failed: Connection timed out
[1741443699.616893] [ohm:1887792:0]        ib_iface.c:1059 UCX  ERROR ibv_create_cq(cqe=256) failed: Connection timed out
[1741443699.616992] [ohm:1887777:0]        ib_iface.c:1059 UCX  ERROR ibv_create_cq(cqe=256) failed: Connection timed out
[1741443699.622617] [ohm:1887802:0]        ib_iface.c:1059 UCX  ERROR ibv_create_cq(cqe=256) failed: Connection timed out
[1741443699.640267] [ohm:1887796:0]        ib_iface.c:1059 UCX  ERROR ibv_create_cq(cqe=256) failed: Connection timed out
[1741443699.651369] [ohm:1887891:0]        ib_iface.c:1059 UCX  ERROR ibv_create_cq(cqe=256) failed: Connection timed out
[1741443699.658727] [ohm:1887790:0]        ib_iface.c:1059 UCX  ERROR ibv_create_cq(cqe=256) failed: Connection timed out
[1741443699.661248] [ohm:1887791:0]        ib_iface.c:1059 UCX  ERROR ibv_create_cq(cqe=256) failed: Connection timed out
[1741443699.666086] [ohm:1887899:0]        ib_iface.c:1059 UCX  ERROR ibv_create_cq(cqe=256) failed: Connection timed out
[1741443699.672437] [ohm:1887781:0]        ib_iface.c:1059 UCX  ERROR ibv_create_cq(cqe=256) failed: Connection timed out
[1741443699.675845] [ohm:1887787:0]        ib_iface.c:1059 UCX  ERROR ibv_create_cq(cqe=256) failed: Connection timed out
[1741443699.692504] [ohm:1887840:0]        ib_iface.c:1059 UCX  ERROR ibv_create_cq(cqe=256) failed: Connection timed out
[1741443699.694544] [ohm:1887825:0]        ib_iface.c:1059 UCX  ERROR ibv_create_cq(cqe=256) failed: Connection timed out
[1741443699.704641] [ohm:1887827:0]        ib_iface.c:1059 UCX  ERROR ibv_create_cq(cqe=256) failed: Connection timed out
[1741443699.705334] [ohm:1887904:0]        ib_iface.c:1059 UCX  ERROR ibv_create_cq(cqe=256) failed: Connection timed out
[1741443699.706213] [ohm:1887801:0]        ib_iface.c:1059 UCX  ERROR ibv_create_cq(cqe=256) failed: Connection timed out
[1741443699.711032] [ohm:1887911:0]        ib_iface.c:1059 UCX  ERROR ibv_create_cq(cqe=256) failed: Connection timed out
[1741443699.711452] [ohm:1887884:0]        ib_iface.c:1059 UCX  ERROR ibv_create_cq(cqe=256) failed: Connection timed out
[1741443699.713192] [ohm:1887832:0]        ib_iface.c:1059 UCX  ERROR ibv_create_cq(cqe=256) failed: Connection timed out
[1741443699.714602] [ohm:1887848:0]        ib_iface.c:1059 UCX  ERROR ibv_create_cq(cqe=256) failed: Connection timed out
[1741443699.714866] [ohm:1887852:0]        ib_iface.c:1059 UCX  ERROR ibv_create_cq(cqe=256) failed: Connection timed out
[1741443699.720428] [ohm:1887871:0]        ib_iface.c:1059 UCX  ERROR ibv_create_cq(cqe=256) failed: Connection timed out
[1741443699.723365] [ohm:1887886:0]        ib_iface.c:1059 UCX  ERROR ibv_create_cq(cqe=256) failed: Connection timed out
[1741443699.723768] [ohm:1887870:0]        ib_iface.c:1059 UCX  ERROR ibv_create_cq(cqe=256) failed: Connection timed out
[1741443699.726481] [ohm:1887915:0]        ib_iface.c:1059 UCX  ERROR ibv_create_cq(cqe=256) failed: Connection timed out
[1741443699.735228] [ohm:1887818:0]        ib_iface.c:1059 UCX  ERROR ibv_create_cq(cqe=256) failed: Connection timed out
[1741443699.742619] [ohm:1887857:0]        ib_iface.c:1059 UCX  ERROR ibv_create_cq(cqe=256) failed: Connection timed out
[1741443699.744614] [ohm:1887922:0]        ib_iface.c:1059 UCX  ERROR ibv_create_cq(cqe=256) failed: Connection timed out
[1741443699.744876] [ohm:1887788:0]        ib_iface.c:1059 UCX  ERROR ibv_create_cq(cqe=256) failed: Connection timed out
[1741443699.749028] [ohm:1887921:0]        ib_iface.c:1059 UCX  ERROR ibv_create_cq(cqe=256) failed: Connection timed out
[1741443699.769439] [ohm:1887785:0]        ib_iface.c:1059 UCX  ERROR ibv_create_cq(cqe=256) failed: Connection timed out
[1741443699.773506] [ohm:1887895:0]        ib_iface.c:1059 UCX  ERROR ibv_create_cq(cqe=256) failed: Connection timed out
[1741443699.780717] [ohm:1887789:0]        ib_iface.c:1059 UCX  ERROR ibv_create_cq(cqe=256) failed: Connection timed out
[1741443699.785318] [ohm:1887795:0]        ib_iface.c:1059 UCX  ERROR ibv_create_cq(cqe=256) failed: Connection timed out
[1741443699.788597] [ohm:1887784:0]        ib_iface.c:1059 UCX  ERROR ibv_create_cq(cqe=256) failed: Connection timed out
[1741443699.790510] [ohm:1887924:0]        ib_iface.c:1059 UCX  ERROR ibv_create_cq(cqe=256) failed: Connection timed out
[1741443699.790609] [ohm:1887893:0]        ib_iface.c:1059 UCX  ERROR ibv_create_cq(cqe=256) failed: Connection timed out
[1741443699.795430] [ohm:1887876:0]        ib_iface.c:1059 UCX  ERROR ibv_create_cq(cqe=256) failed: Connection timed out
[1741443699.796157] [ohm:1887898:0]        ib_iface.c:1059 UCX  ERROR ibv_create_cq(cqe=256) failed: Connection timed out
[1741443699.797741] [ohm:1887865:0]        ib_iface.c:1059 UCX  ERROR ibv_create_cq(cqe=256) failed: Connection timed out
[1741443699.798823] [ohm:1887869:0]        ib_iface.c:1059 UCX  ERROR ibv_create_cq(cqe=256) failed: Connection timed out
[1741443699.799903] [ohm:1887829:0]        ib_iface.c:1059 UCX  ERROR ibv_create_cq(cqe=256) failed: Connection timed out
[1741443699.800223] [ohm:1887806:0]        ib_iface.c:1059 UCX  ERROR ibv_create_cq(cqe=256) failed: Connection timed out
[1741443699.805058] [ohm:1887798:0]        ib_iface.c:1059 UCX  ERROR ibv_create_cq(cqe=256) failed: Connection timed out
[1741443699.806160] [ohm:1887877:0]        ib_iface.c:1059 UCX  ERROR ibv_create_cq(cqe=256) failed: Connection timed out
[1741443699.807339] [ohm:1887863:0]        ib_iface.c:1059 UCX  ERROR ibv_create_cq(cqe=256) failed: Connection timed out
[1741443699.807892] [ohm:1887782:0]        ib_iface.c:1059 UCX  ERROR ibv_create_cq(cqe=256) failed: Connection timed out
[1741443699.809738] [ohm:1887823:0]        ib_iface.c:1059 UCX  ERROR ibv_create_cq(cqe=256) failed: Connection timed out
[1741443699.810248] [ohm:1887835:0]        ib_iface.c:1059 UCX  ERROR ibv_create_cq(cqe=256) failed: Connection timed out
[1741443699.811809] [ohm:1887817:0]        ib_iface.c:1059 UCX  ERROR ibv_create_cq(cqe=256) failed: Connection timed out
[1741443699.812430] [ohm:1887822:0]        ib_iface.c:1059 UCX  ERROR ibv_create_cq(cqe=256) failed: Connection timed out
[1741443699.813220] [ohm:1887800:0]        ib_iface.c:1059 UCX  ERROR ibv_create_cq(cqe=256) failed: Connection timed out
[1741443699.813493] [ohm:1887860:0]        ib_iface.c:1059 UCX  ERROR ibv_create_cq(cqe=256) failed: Connection timed out
[1741443699.814626] [ohm:1887842:0]        ib_iface.c:1059 UCX  ERROR ibv_create_cq(cqe=256) failed: Connection timed out
[1741443699.815269] [ohm:1887808:0]        ib_iface.c:1059 UCX  ERROR ibv_create_cq(cqe=256) failed: Connection timed out

--------------------------------
SUGGESTED CITATIONS FOR THIS RUN
--------------------------------

Below you find a list of papers that are relevant to this ORCA run
We neither can nor want to force you to cite these papers, but we appreciate if you do
You receive ORCA, which is the product of decades of hard work by many enthusiastic individuals, for free
The only thing we kindly ask in return is that you cite our papers,
We deeply appreciate it, if you show your appreciation for ORCA by not just citing the generic ORCA reference.

Please note that relegating all ORCA citations to the supporting information does *not* help us.
SI sections are not indexed - citations you put there will not count into any citation statistics
But we need these citations in order to attract the funding resources that allow us to do what we are doing

Therefore, if you are a happy ORCA user, please consider citing a few of the papers listed below in the main body of your paper

In addition to the list printed below, the program has created the file orca.bibtex that contains the list in bibtex format
You can import this file easily into all common literature databanks and citation aid programs


List of essential papers. We consider these as the minimum necessary citations

  1. Neese,F.
     Software update: the ORCA program system, version 5.0
     WIRES Comput. Molec. Sci., 2022 12(1)e1606
     doi.org/10.1002/wcms.1606

List of papers to cite with high priority. The work reported in these papers was absolutely
necessary for this run to complete.
Our perspective: the developers of density functionals and basis sets usually get cited in chemistry papers
Good! But without the algorithms to do something with them, the functionals or basis sets would not do anything.
Hence, in our opinion, the algorithm design and method developments papers are equally worthy of getting cited

  1. Neese,F.; Olbrich,G.
     Efficient use of the resolution of the identity approximation in time-dependent density functional calculations with hybrid density functionals
     Chem. Phys. Lett., 2002 362 170-178
     doi.org/10.1016/s0009-2614(02)01053-9
  2. Neese,F.
     An improvement of the resolution of the identity approximation for the formation of the Coulomb matrix
     J. Comp. Chem., 2003 24(14)1740-1747
     doi.org/10.1002/jcc.10318
  3. Neese,F.; Wennmohs,F.; Hansen,A.; Becker,U.
     Efficient, approximate and parallel Hartree-Fock and hybrid DFT calculations. A 'chain-of-spheres' algorithm for the Hartree-Fock exchange
     Chem. Phys., 2009 356(1-3)98-109
     doi.org/10.1016/j.chemphys.2008.10.036
  4. Petrenko,T.; Kossmann,S.; Neese,F.
     Efficient time-dependent density functional theory approximations for hybrid density functionals: Analytical gradients and parallelization
     J. Chem. Phys., 2011 134 054116
     doi.org/10.1063/1.3533441
  5. Helmich-Paris,B.; de Souza,B.; Neese,F.; Izsák,R.
     An improved chain of spheres for exchange algorithm
     J. Chem. Phys., 2021 155 104109
     doi.org/doi: 10.1063/5.0058766.
  6. Neese,F.
     The SHARK Integral Generation and Digestion System
     J. Comp. Chem., 2022  1-16
     doi.org/10.1002/jcc.26942
  7. Lehtola,S.; Steigemann,C.; Oliveira,M.; Marques,M.
     Recent developments in Libxc - A comprehensive library of functionals for density functional theory
     Software X, 2018 7 
     doi.org/10.1016/j.softx.2017.11.002
  8. Grimme,S.; Antony,J.; Ehrlich,S.; Krieg,H.
     A consistent and accurate ab initio parametrization of density functional dispersion correction (DFT-D) for the 94 elements H-Pu
     J. Chem. Phys., 2010 132 154104-XXXX
     doi.org/10.1063/1.3382344
  9. Grimme,S.; Ehrlich,S.; Goerigk,L.
     Effect of the damping function in dispersion corrected density functional theory
     J. Comput. Chem., 2011 32(7)1456-1465
     doi.org/10.1002/jcc.21759

List of suggested additional citations. These are papers that are important in the 'surrounding' of 
of this run, or papers that preceded the highly important papers. If you like your results we are grateful for a citation.

  1. Izsak,R.; Neese,F.
     An overlap fitted chain of spheres exchange method
     J. Chem. Phys., 2011 135 144105
     doi.org/10.1063/1.3646921
  2. Izsak,R.; Hansen,A.; Neese,F.
     The resolution of identity and chain of spheres approximations for the LPNO-CCSD singles Fock term
     Molec. Phys., 2012 110 2413-2417
     doi.org/10.1080/00268976.2012.687466
  3. Neese,F.
     The ORCA program system
     WIRES Comput. Molec. Sci., 2012 2(1)73-78
     doi.org/10.1002/wcms.81
  4. Izsak,R.; Neese,F.; Klopper,W.
     Robust fitting techniques in the chain of spheres approximation to the Fock exchange: The role of the complementary space
     J. Chem. Phys., 2013 139 
     doi.org/10.1063/1.4819264
  5. Neese,F.
     Software update: the ORCA program system, version 4.0
     WIRES Comput. Molec. Sci., 2018 8(1)1-6
     doi.org/10.1002/wcms.1327
  6. Neese,F.; Wennmohs,F.; Becker,U.; Riplinger,C.
     The ORCA quantum chemistry program package
     J. Chem. Phys., 2020 152 Art. No. L224108
     doi.org/10.1063/5.0004608

List of optional additional citations

  1. Neese,F.
     Approximate second-order SCF convergence for spin unrestricted wavefunctions
     Chem. Phys. Lett., 2000 325(1-3)93-98
     doi.org/10.1016/s0009-2614(00)00662-x

Timings for individual modules:

Sum of individual times          ...      394.730 sec (=   6.579 min)
Startup calculation              ...        6.271 sec (=   0.105 min)   1.6 %
SCF iterations                   ...      223.184 sec (=   3.720 min)  56.5 %
Property integrals               ...        4.114 sec (=   0.069 min)   1.0 %
Property calculations            ...        2.975 sec (=   0.050 min)   0.8 %
CIS module                       ...      158.184 sec (=   2.636 min)  40.1 %
                             ****ORCA TERMINATED NORMALLY****
TOTAL RUN TIME: 0 days 0 hours 6 minutes 36 seconds 883 msec
