22
Properties=species:S:1:pos:R:3:REF_forces:R:3:MACE_forces:R:3 smiles="[H:9][C:5]([H:10])([H:11])[C:3](=[O:1])[O:2][C:4]([H:6])([H:7])[H:8].[H:20][C:16]([H:21])([H:22])[C:14](=[O:12])[O:13][C:15]([H:17])([H:18])[H:19]" total_charge=0 REF_energy=-14614.926532104859 config_type="DES370K Dimers" MACE_energy=-14614.92248326789 pbc="F F F"
O        8.29032993       0.78593999       0.55111998       1.35844908      -2.07457527      -0.29792862       1.36548023      -2.08372749      -0.30017654
O       10.27923965      -0.31686997       0.14546999      -2.39896481      -1.27307662      -1.47063582      -2.43251053      -1.26617917      -1.45541989
C        8.87265014      -0.26984000       0.30452001       0.21281280       2.96550880      -0.50839708       0.22720034       2.97972993      -0.49177256
C       11.08134078       0.83714002       0.38617000      -0.34123261       0.80731565       2.41261092      -0.34179794       0.79845869       2.40289626
C        8.10474967      -1.57192004       0.11992000       1.00428767      -0.56996345       0.32939403       0.99115330      -0.57000348       0.30903087
H       11.21273994       0.65984005       1.46687007       0.76079914       1.11147802      -0.31497365       0.76752212       1.10504192      -0.31034906
H       10.59661960       1.81810010       0.24697000      -0.21852009      -0.74714673      -0.19188488      -0.22206699      -0.74664582      -0.20022583
H       12.07623958       0.86571997      -0.08918001      -1.08114489      -0.60844824      -0.09925140      -1.06733464      -0.61917214      -0.10266237
H        7.93256998      -1.90288007       1.15790999      -0.09399449      -0.14654507      -0.47141690      -0.08828738      -0.14103855      -0.46672912
H        8.70123958      -2.34035992      -0.39999002      -0.19652892       0.40104213       0.34308402      -0.19877703       0.40042057       0.34171858
H        7.12925958      -1.48128009      -0.38685000       0.66025213       0.51571546       0.33828253       0.65761688       0.50539280       0.33777895
O       13.64393996      -0.33881998       2.00986004       0.27689300      -1.07731556      -0.79487447       0.29049932      -1.06308144      -0.80561765
O       15.62827014      -0.53245002       1.11460995       2.50129986      -0.86099074      -0.76993471       2.50896051      -0.85099481      -0.76173188
C       14.35155963      -0.63987005       1.04989994      -2.88014831       3.16135926       1.29846105      -2.87807294       3.13236010       1.33089275
C       16.24683951      -0.08203000       2.30195999       0.82554412       0.73825812       1.11857297       0.81468419       0.72575977       1.09345358
C       13.76253985      -0.81733000      -0.31635001      -0.68546267      -2.14771757      -0.06389263      -0.70316413      -2.11678438      -0.07427015
H       15.56777953       0.05194000       3.16076016       0.10102512      -0.22003168      -0.74090638       0.09803483      -0.22251748      -0.73354168
H       16.69340895       0.89477002       2.05082989      -0.12123019      -0.42628506       0.23233776      -0.11647481      -0.41779298       0.23579388
H       17.05464934      -0.77284998       2.59662008      -0.45025249       0.20700682      -0.36703480      -0.45239208       0.20519217      -0.36464519
H       13.75710963      -0.02740000      -1.08615005       0.55581297      -0.05585373       0.90169336       0.55825039      -0.06465334       0.89384262
H       12.71916961      -1.05631006      -0.05013000       0.47566549      -0.08704679      -0.70294375       0.48818129      -0.08435176      -0.70370475
H       14.23264980      -1.71990013      -0.74176002      -0.26879790       0.38623518      -0.17931517      -0.26670493       0.39458689      -0.17456083
7
Properties=species:S:1:pos:R:3:REF_forces:R:3:MACE_forces:R:3 smiles="[H:3][C:2](=[O:1])[H:4].[H:6][O:5][H:7]" total_charge=0 REF_energy=-5198.8663701590785 config_type="DES370K Dimers" MACE_energy=-5198.866111242871 pbc="F F F"
O        0.13171999      -0.45148998      -1.15481997      -0.46169110       1.25825738       3.40161406      -0.45966121       1.24572307       3.38394374
C        0.00000000       0.00000000       0.00000000       0.44812507      -0.85680499      -2.82863865       0.44057460      -0.84650596      -2.81309297
H        0.88629997       0.16478000       0.65784997      -0.45409865      -0.14118016      -0.29950519      -0.46482693      -0.13380396      -0.29596418
H       -0.99397004       0.29762000       0.41097999       0.46420040      -0.23223335      -0.24848774       0.47925436      -0.23293312      -0.24611855
O        0.31137001       1.54225004       3.47458005       0.63033952      -1.14096829       0.49126310       0.63445715      -1.14932209       0.49115021
H       -0.10443001       0.77196002       3.92405009       0.55016558       0.92957270      -0.50065147       0.54616107       0.93180004      -0.50155002
H        1.27875996       1.37352002       3.53733992      -1.17656495       0.18289998      -0.01683805      -1.17595903       0.18504202      -0.01836822
42
Properties=species:S:1:pos:R:3:REF_forces:R:3:MACE_forces:R:3 smiles="[H:23][c:10]1[c:12]([c:11]([c:15]([c:13]([c:14]1[C:8](=[O:1])[O:5][C:16]([H:25])([H:26])[H:27])[O:7][C:18]([H:31])([H:32])[H:33])[C:19]([H:34])([H:35])[H:36])[H:24])[C:3]#[C:4][C:20]([H:37])([H:38])[C:22]([H:41])([H:42])[C:21]([H:39])([H:40])[C:9](=[O:2])[O:6][C:17]([H:28])([H:29])[H:30]" total_charge=0 REF_energy=-28207.419085593036 config_type=PubChem MACE_energy=-28207.431437750325 pbc="F F F"
O        2.24429991       0.60597765       5.32777597       0.52451724      -2.04666876      -1.99934722       0.51635127      -2.05027889      -2.00975067
O       -0.20087049       3.11139133      -4.18153093       0.76815913       0.42568162      -0.63457238       0.77597833       0.44556487      -0.63329306
C        0.50012076      -0.20622323      -0.28800771       0.37761918       0.19115270      -1.96212124       0.36958779       0.20111553      -1.92478777
C        0.87936964      -0.40664670      -1.43303606      -0.59286894       0.05715219       1.68949750      -0.58078182       0.05573250       1.63975908
O        3.02552917      -1.02542923       3.88496615      -0.78740684       0.57688843      -0.08210592      -0.80026809       0.59490471      -0.09060930
O        1.21756281       1.75556161      -5.30018661      -0.08475426       0.31722423       0.01947975      -0.07934381       0.31411816       0.02313845
O       -0.45027480       1.15782150       5.11491491      -0.10978690      -0.68536657       0.37379412      -0.11762238      -0.68592783       0.34612598
C        2.12884929      -0.07502780       4.29599430       0.25663705       1.74054230       2.46336147       0.26908697       1.72782070       2.45692659
C        0.18782218       2.00613096      -4.48111388      -1.14129158       0.81156361       1.09043667      -1.16293032       0.79181906       1.09568723
C        1.17939689      -0.11972461       2.02071621      -0.56001474       0.15096820       0.72491669      -0.56571603       0.13814585       0.74166796
C       -1.04189167       0.72796092       1.49429264       1.21238346      -0.57794490       0.83899529       1.20993046      -0.56972812       0.86756847
C        0.18173536       0.14166390       1.07474723       0.24579287      -0.09333646       0.37486378       0.23977877      -0.09098240       0.35130971
C       -0.23893080       0.71437581       3.84056951      -0.16330673       0.32550628      -1.46912355      -0.15422554       0.34917581      -1.42623063
C        0.97055044       0.17199963       3.40066173       0.71546942      -0.93782655      -1.48497348       0.71400532      -0.93423055      -1.46113833
C       -1.25082490       0.96801077       2.85995009       0.85522981       0.00675375       0.10581367       0.83343432       0.01696298       0.07615593
C        4.14671232      -1.19854865       4.74587013       0.25724405      -0.60936786       0.22634132       0.26590664      -0.61540592       0.22962087
C        1.83491303       2.93920495      -5.87741897      -0.05168148      -0.61431415      -0.66962706      -0.04563687      -0.61484568      -0.68344773
C       -0.82585476       0.11137622       6.02699759       0.17393637      -0.35256448       0.67992756       0.17908301      -0.35937603       0.68031080
C       -2.50024459       1.61569645       3.33131124      -0.45192346       0.79138374      -0.51890305      -0.41866327       0.78014205      -0.54991380
C        1.28418418      -0.63948641      -2.83944891      -0.42456419       0.79638545       1.01968498      -0.41897975       0.78831340       1.02327519
C       -0.63164876       0.87538203      -3.89317558       1.60941970      -1.65670684       0.57501880       1.61102319      -1.64648745       0.57161685
C        0.07322019      -0.50462875      -3.76659582      -0.24386687      -0.39221861      -1.00356804      -0.24316287      -0.38434223      -1.00615742
H        2.14703777      -0.53324328       1.70239403      -0.72123146       0.22491677       0.22661734      -0.70993274       0.22274437       0.23672115
H       -1.77846239       1.00373214       0.75480658      -0.11994444      -0.08405137       0.10880949      -0.12914031      -0.09173506       0.11100218
H        4.68841459      -0.28786210       4.85605289       0.41744014       0.66682877      -0.06749975       0.41571988       0.66634460      -0.06547202
H        4.82012607      -2.01145623       4.43358519      -0.61886124       0.44283016      -0.61628243      -0.62089875       0.44494100      -0.61109618
H        3.80363275      -1.48392460       5.71168711      -0.36533648      -0.08957235       0.87698370      -0.36571838      -0.08886149       0.87071555
H        2.23500707       3.60737373      -5.15814254       0.04888307       0.40325231       1.05182234       0.05113134       0.40133416       1.05676579
H        1.14749696       3.50761439      -6.50468537      -0.08637232      -0.33376322       0.08023712      -0.09051199      -0.33531970       0.08136839
H        2.67984607       2.57695701      -6.45319793      -0.19576171      -0.19708246      -0.18438799      -0.19856177      -0.19554611      -0.17866334
H       -0.20347808      -0.79895077       5.90863230      -0.17320193       0.63920273      -0.03099320      -0.17428971       0.64172950      -0.03072287
H       -0.75337909       0.43251131       7.10145523       0.11794263       0.11383845      -1.31318966       0.12398053       0.11015588      -1.31142295
H       -1.85895727      -0.16543362       5.82772972      -0.12111822      -0.08259617       0.03773462      -0.12466265      -0.08517701       0.03422861
H       -3.19091342       1.71414032       2.49800445      -0.08420048       0.05539850      -0.02671342      -0.08666245       0.05555171      -0.03099605
H       -3.00525067       1.05506196       4.09063532      -0.16465020      -0.33588950       0.50981370      -0.16190623      -0.34237492       0.51972055
H       -2.31662390       2.62134649       3.72646787       0.04232765      -0.25934942      -0.01267121       0.04399552      -0.26098642      -0.00607419
H        1.73779371      -1.61482379      -2.93142078      -0.04917736      -0.36614848      -0.05469224      -0.04737771      -0.36528513      -0.05002019
H        2.08576216       0.07064437      -3.03169939      -0.07561407       0.16640888      -0.42035662      -0.08175131       0.16216509      -0.41324066
H       -0.95954297       1.16576840      -2.87499473      -0.00210934       0.18171010      -0.92588908      -0.00440299       0.17996387      -0.93222679
H       -1.45768294       0.73775240      -4.57851074      -0.40888601       0.09818223       0.14371119      -0.40826392       0.09859744       0.14297183
H        0.36179120      -0.85437701      -4.76744888       0.07712698       0.24282915       0.17825740       0.07687615       0.24124716       0.17822205
H       -0.67090080      -1.24422715      -3.44416044       0.09449220       0.28277065       0.08063320       0.09554219       0.28830054       0.08038474
46
Properties=species:S:1:pos:R:3:REF_forces:R:3:MACE_forces:R:3 smiles="[H:22]/[C:6](=[C:8](/[H:23])[C:15]([H:34])([H:35])[C:13]([H:30])([H:31])[C:4](=[O:1])[N:10]1[C:5](=[O:2])[C:14]([C:18]([C:17]1([H:37])[H:38])([H:39])[H:40])([H:32])[H:33])/[C:7](=[C:9]([H:24])/[C:16]2([C:20]([C:21]([C:19]([C:12]([O:3]2)([H:28])[H:29])([H:41])[H:42])([H:45])[H:46])([H:43])[H:44])[H:36])/[C:11]([H:25])([H:26])[H:27]" total_charge=0 REF_energy=-25682.226125647478 config_type=PubChem MACE_energy=-25682.22842861379 pbc="F F F"
O        0.29491641      -4.41243694      -0.05779336      -1.04981247      -1.07905753      -0.23469095      -1.03685489      -1.05870506      -0.22572448
O       -2.36241243      -5.28866145      -1.24967585       1.37417945       0.47846803      -0.02040934       1.36873169       0.47231735      -0.00514832
O       -0.31728260       3.89171626       3.68665483      -0.50828075      -0.34635943       1.04613646      -0.45836553      -0.34730136       1.01944151
C        0.13932555      -3.63045261      -0.95766327       2.03148742       1.11214095       1.72186102       1.99000981       1.07227203       1.68507868
C       -1.78848884      -4.72393844      -2.15490363      -1.13345289      -0.29590210       2.47725304      -1.14044511      -0.29364121       2.44884521
C        1.54452362       0.32353515       1.23357292       0.99166677      -2.63922667      -0.46097573       0.98050121      -2.69027939      -0.44890220
C        1.92103865       1.61702325       1.75428297      -3.40839806       2.85054157       1.26965625      -3.32993014       2.86447091       1.25642242
C        2.34519377      -0.65946160       0.70142458      -3.53942386       0.09448493       0.90313373      -3.56692679       0.13647714       0.91387214
C        0.84269946       2.45334889       2.25645294       0.74611466      -5.91278822      -2.28470870       0.69987426      -5.90847611      -2.29192697
N       -0.74487851      -3.73090217      -2.02797172      -0.20147499      -1.26356203       0.55550647      -0.17456168      -1.23403592       0.56506971
C        3.34284403       2.09831693       1.69495549       1.09340468       0.14280847      -0.35494244       1.09686840       0.15865174      -0.35859055
C       -0.23200861       4.97762205       4.64333154       1.14019452       0.29991228      -2.22105763       1.12093069       0.28249302      -2.24296733
C        1.03760161      -2.36015508      -0.83483825      -0.79341397       1.96526911      -1.93943235      -0.80663948       1.98798204      -1.94770690
C       -2.33421586      -4.81394241      -3.52299402       0.51234620       1.26323410      -0.68703847       0.53245830       1.28095605      -0.67112548
C        1.72869482      -2.07680723       0.50293682       1.72373174       0.12353873      -1.03281769       1.73349362       0.09095804      -1.03226234
C        0.89141594       3.68731882       2.97728278      -1.40702848       2.60576861      -2.22719044      -1.42740248       2.57004100      -2.22566893
C       -0.46956668      -3.08355520      -3.26048705       0.90346961      -0.55205244      -2.90680257       0.92678352      -0.56393143      -2.89841260
C       -1.40099392      -3.83499620      -4.28080413       0.41367026      -0.84115796      -1.96240159       0.39819584      -0.86114443      -1.95304597
C       -0.10260234       6.26858046       3.81929662       1.46381232      -0.23932580       0.60567608       1.46510096      -0.22336414       0.60272346
C        1.05163189       4.91177513       1.97812750      -1.27001016       1.61496200       1.71891493      -1.27724167       1.63491425       1.74132127
C        1.13687225       6.19527771       2.92283394       0.24317176       0.13395296      -2.42063061       0.23346363       0.12203029      -2.40713806
H        0.55525530      -0.08504967       1.45931675      -0.06726232       0.82366759      -0.14056718      -0.04219343       0.81223654      -0.14149883
H        3.36490490      -0.54391763       0.61137450       2.04529608       0.32939764      -0.53048536       2.02673513       0.32909019      -0.52023539
H       -0.21310232       1.98640921       2.20232548       1.87249777       0.75244305      -0.03766319       1.84736293       0.75566388      -0.05050997
H        4.07636430       1.58562877       2.40857019      -1.21558839       0.59980562      -0.86611241      -1.22769467       0.60991543      -0.86217900
H        3.28892924       3.17724039       1.92230966       0.60738120      -0.55173911      -0.07444815       0.60053072      -0.56007215      -0.06393042
H        3.79536726       1.98691501       0.64679952      -0.76036281       0.13053762       1.43655517      -0.76707782       0.12100391       1.43472792
H        0.66104209       4.76708080       5.19561245       0.48333466       0.27119885       0.79142743       0.50230514       0.27704664       0.80716449
H       -1.07827971       5.03386118       5.27572443      -0.92812103      -0.54770440       0.44129500      -0.92699280      -0.54210468       0.43626536
H        1.70083263      -2.21847818      -1.76772688      -1.01365736      -0.11001469       1.50574026      -1.01113799      -0.11186307       1.52981962
H        0.32389537      -1.50406525      -0.75676463       0.18858809      -0.41462428      -1.24705206       0.19564023      -0.40599837      -1.24149774
H       -2.27437852      -5.84846923      -3.88404701      -0.21510823       0.44260278       0.15158995      -0.21074283       0.44224849       0.13715711
H       -3.40316436      -4.46524236      -3.43314383       1.17556006      -0.50649855      -0.36078805       1.17253074      -0.50314824      -0.36143022
H        0.98072579      -2.17630193       1.21571293      -1.30509092      -0.29596680       1.42407664      -1.30113252      -0.28883735       1.41290533
H        2.45173862      -2.84445379       0.71441194       0.47397089      -0.20474844       0.17404076       0.48594391      -0.17748127       0.17832109
H        1.74351086       3.60121371       3.58150842       1.23457405       0.66146109       1.41670080       1.26039733       0.66605422       1.40867765
H       -0.69982980      -2.05006621      -3.33087585      -0.41257355       1.01768054       0.67909501      -0.42294972       1.01871889       0.68007786
H        0.62054000      -3.11323378      -3.65823934      -1.63997376      -0.44245066       1.08934572      -1.66297156      -0.45039365       1.09877774
H       -2.06108830      -3.13375184      -4.85341785       1.17146882      -0.56717143       0.16222310       1.16867340      -0.56552324       0.15738531
H       -0.69811199      -4.46945140      -4.96106002      -1.53496251       1.39510931       0.82499000      -1.52980262       1.38987762       0.81755163
H        0.07621815       7.16976978       4.39859583      -0.62330243      -0.02331081       0.55080266      -0.61927383      -0.01752584       0.55614334
H       -1.01335285       6.36009743       3.23056008       0.14812898       0.18523592      -0.13499679       0.15211553       0.18416689      -0.13430958
H        1.96135404       4.82151796       1.49770572       1.93798029      -0.27206107      -1.09806433       1.93526073      -0.28212305      -1.09191166
H        0.28999541       5.08778765       1.14551147       0.53824754      -0.85131074       1.55041886       0.53968740      -0.85567490       1.55044534
H        1.19399073       7.14235164       2.33850028      -0.52428516      -0.68157881      -0.17056978      -0.52343271      -0.68860381      -0.17102293
H        2.17448666       6.26555397       3.31886579      -0.96191465      -0.65105950       0.91376806      -0.96982484      -0.64935791       0.90895167
47
Properties=species:S:1:pos:R:3:REF_forces:R:3:MACE_forces:R:3 smiles="[H:35][c:16]1[c:17]([c:19]([c:11]([n:2][c:10]1[H:30])[H:31])[c:20]2[c:18]([c:21]3[c:15]([n:5][c:12]2[H:32])[C:7](=[C:8]([N:24]3[c:9]4[n:3][c:13]([c:22]([c:14]([n:4]4)[H:34])[C:26]([H:40])([H:41])[H:42])[H:33])[H:29])[N:23]([H:38])[C:6](=[O:1])[N:25]([H:39])[C:28]([H:46])([H:47])[C:27]([H:43])([H:44])[H:45])[H:37])[H:36]" total_charge=0 REF_energy=-33546.21751710395 config_type=PubChem MACE_energy=-33546.26463724231 pbc="F F F"
O       -2.38049600      -0.45142434      -4.15992925      -3.37759068      -0.49771342      -6.56696349      -3.43300737      -0.49506997      -6.57131716
N        6.79840853      -1.57715223       1.13012739       0.03607479      -0.19160184      -1.11280417       0.04012886      -0.19033428      -1.11931964
N       -1.74322150       2.06552198       1.68692877      -1.88781420      -0.51764588      -0.30823340      -1.85555941      -0.53320926      -0.30428685
N        0.44444210       2.06003978       2.58295776       0.01350229      -2.70112811      -3.14623733       0.03485569      -2.70961789      -3.18367922
N        2.20611503       0.03828868      -1.97235391      -0.10967194      -0.96382639       1.24705772      -0.16950257      -1.00400231       1.25509327
C       -1.89434431      -0.27858899      -3.14293502       1.50849013      -2.32517971       6.99351721       1.51458514      -2.35765440       6.92160021
C       -0.09486673       0.66546976      -1.70223806      -4.50496342       0.26784598      -3.10569800      -4.61886508       0.23984211      -3.19126370
C       -0.90846429       1.12371620      -0.71250651       1.35325790       0.26718456      -0.14142709       1.31993860       0.20158834      -0.11723122
C       -0.50940416       1.69946887       1.64063086       2.68259321       2.37862021       1.27744438       2.69183192       2.40337787       1.29162508
C        7.28855755      -0.72362683       2.08978643      -3.84316798       0.08431505      -1.96028676      -3.84881634       0.09376908      -1.95538306
C        5.62514068      -1.43045161       0.43247959       1.64456516       4.09319608       5.61029085       1.62838978       4.08682508       5.60522838
C        3.23936035      -0.31732450      -1.25370095       2.81382877      -0.27848761       0.73012537       2.80715648      -0.23996736       0.73874854
C       -2.16513489       2.70753887       2.73567011       0.50912957       0.99621804       2.52566978       0.47384893       1.00412891       2.51046687
C        0.07812413       2.63592031       3.68712094      -2.29025757      -0.56573878      -0.47248852      -2.29587348      -0.55237161      -0.44498740
C        1.17199197       0.45577203      -1.22542570       1.28609736      -0.71325557      -0.81469983       1.40952814      -0.66838112      -0.82693451
C        6.52257683       0.35237625       2.52038350      -2.28146718       0.29713573       0.12810605      -2.27565537       0.28883565       0.11700762
C        5.24520208       0.61009516       1.95454969       0.77988366      -1.33897410      -1.89872304       0.77193414      -1.33114642      -1.90963618
C        2.41323521       0.49814901       0.83773964       0.47813068       0.48827426       0.29816400       0.43072180       0.48367320       0.25526183
C        4.81094076      -0.27617393       0.91696625       0.73655473      -0.88383280      -1.83075920       0.74151504      -0.88503451      -1.81263313
C        3.57583000      -0.01729653       0.16317107      -4.85902338       0.59606442      -0.79082535      -4.82144388       0.57554732      -0.79383246
C        1.16593077       0.65490581       0.13581910       1.07960553       1.25089647       1.01685597       1.09078807       1.22498506       1.11633868
C       -1.24379847       3.03211977       3.84336521      -2.44435395       0.26170400      -1.07513141      -2.39597431       0.22950760      -1.05496167
N       -0.70427225       0.36840821      -2.99560449       0.99245607       1.93864497       2.77513321       1.05860357       1.95777488       2.90576588
N       -0.13479731       1.19522603       0.41817053       2.81108663      -1.39561225       1.57775717       2.78435945      -1.37458408       1.52805367
N       -2.28345153      -0.97502158      -1.98783515       0.68027064       0.05747106       0.29764929       0.72774774       0.11126344       0.31813203
C       -1.67887018       3.86350538       5.03018429      -0.92112950      -0.99576951       0.19305960      -0.93812633      -0.97140443       0.19479581
C       -4.66281173      -1.13748334      -1.90526650       0.11021541      -0.10643783      -0.48150386       0.10011861      -0.11001927      -0.49762840
C       -3.33509490      -1.92971275      -1.79470489      -2.25260230       0.74492382      -0.64454040      -2.29901882       0.73924762      -0.61214756
H       -1.91356227       1.45457294      -0.72714434      -0.46259342       0.04091398       0.07513945      -0.47560633       0.06188932       0.07397012
H        8.23472549      -0.90205047       2.46083595       1.71286321      -0.62428683       0.67598686       1.71491729      -0.63161126       0.68711824
H        5.33535578      -2.16259763      -0.28046075      -0.18334973      -0.28834341      -0.39290015      -0.17265463      -0.28923075      -0.40262782
H        3.95608165      -0.88884768      -1.84298251       0.38970699       0.41768789       0.18870525       0.39459490       0.41420386       0.18242027
H       -3.27597520       2.90557482       2.67621138       1.45694236       0.22779314       0.78274155       1.46348572       0.22878817       0.76980637
H        0.78585564       2.58757927       4.47537376       0.60444669       0.76304241       0.68910856       0.59283623       0.77422761       0.69225202
H        6.61239483       0.98889976       3.38728454       1.41975485      -0.04428267       0.05697821       1.42019541      -0.03718722       0.05695501
H        4.71813776       1.57524898       2.17293491       0.33216786      -1.40646678      -0.11192735       0.31745610      -1.40421046      -0.09657526
H        2.50756027       0.84077715       1.89226391      -0.30456804      -0.54982597      -1.00787141      -0.29242078      -0.54633085      -1.00436421
H       -0.20005546       0.10983177      -3.77596710       2.01250203       0.13108458      -1.51919731       2.02229341       0.12650350      -1.53275253
H       -1.66042445      -0.91807101      -1.21823535       0.35226364       0.08625729       0.20125895       0.38280008       0.07928341       0.17724740
H       -1.61972496       4.89491989       4.69550469       0.64240406       0.31144886       0.57665831       0.64343642       0.31106850       0.58004434
H       -0.99210999       3.56561639       5.91733028      -1.64567493       1.00963285      -1.23611873      -1.64901882       1.00213215      -1.24538111
H       -2.82235715       3.77828886       5.17936279       1.95775887      -0.39677548       0.37787472       1.95824164      -0.40161643       0.38359258
H       -4.84127042      -1.01098821      -2.97814176      -0.20176796       0.55800542       0.38700769      -0.19668791       0.56416170       0.38538313
H       -4.53934190      -0.20300851      -1.35927484       0.13592340       0.21329156      -0.45782611       0.13019325       0.21960654      -0.45741080
H       -5.54671619      -1.55559705      -1.45059488      -0.15230689      -0.81074344       0.00111962      -0.13610191      -0.81694539       0.00198457
H       -3.36140726      -2.76184747      -2.50801656       0.34893133       0.22334432       0.05141344       0.35872235       0.24251727       0.04831710
H       -3.35266493      -2.33923886      -0.79850564       0.84110485      -0.10939792       0.33903628       0.84910856      -0.11481889       0.33714489
6
Properties=species:S:1:pos:R:3:REF_forces:R:3:MACE_forces:R:3 smiles="[H:2][O:1][H:3].[H:5][O:4][H:6]" total_charge=0 REF_energy=-4162.180572648695 config_type="DES370K Dimers" MACE_energy=-4162.179975600519 pbc="F F F"
O        0.43753001      -1.82580995      -3.67435002      -0.20613169       1.28094396       0.51454788      -0.20452701       1.28223932       0.50890117
H       -0.41777000      -1.35223007      -3.56282997       1.07214090      -0.53903324      -0.12087161       1.07127414      -0.54033631      -0.11788743
H        1.11603999      -1.19290006      -3.34675026      -0.86601291      -0.74063239      -0.39349715      -0.86674713      -0.74190301      -0.39101374
O       -0.97388995       2.77994013       3.55309987      -0.39155699      -1.07291911       0.79880179      -0.39142762      -1.06986867       0.80385470
H       -1.32528007       2.81405973       4.47159004       0.42674938      -0.09001080      -1.12391685       0.42632112      -0.09149555      -1.12426715
H       -0.96027004       1.82209992       3.32816982      -0.03503590       1.16169124       0.32503374      -0.03489351       1.16136422       0.32041245
8
Properties=species:S:1:pos:R:3:REF_forces:R:3:MACE_forces:R:3 smiles="[H:8][C:6](=[O:4])[O:5][H:7].[H:2][O:1][H:3]" total_charge=0 REF_energy=-7247.766598130771 config_type="DES370K Dimers" MACE_energy=-7247.7736620600845 pbc="F F F"
O       -0.36989000      -0.28123000       2.28515005      -1.51107861      -0.99907809       3.16637439      -1.49952441      -0.97376095       3.14035252
H       -0.01383000      -0.89300996       2.96867013      -0.27349794       0.66777232      -0.83548293      -0.29424404       0.66640986      -0.82686782
H       -1.34719002      -0.34379002       2.38117981       0.94538608       0.12500287       0.21781528       0.95513547       0.10955417       0.23806962
O        1.23896003      -1.15937006      -1.55987990      -0.77054703       0.20508398       3.08344469      -0.79396700       0.20932521       3.11909897
O        0.00000000       0.00000000       0.00000000       1.12116440      -0.65153905      -2.18768588       1.11549364      -0.63603342      -2.13172508
C        0.76306999      -1.05674994      -0.43129999      -1.54072896       1.07280009      -1.61225310      -1.48164141       1.03578971      -1.69465656