
                                 *****************
                                 * O   R   C   A *
                                 *****************

                                            #,                                       
                                            ###                                      
                                            ####                                     
                                            #####                                    
                                            ######                                   
                                           ########,                                 
                                     ,,################,,,,,                         
                               ,,#################################,,                 
                          ,,##########################################,,             
                       ,#########################################, ''#####,          
                    ,#############################################,,   '####,        
                  ,##################################################,,,,####,       
                ,###########''''           ''''###############################       
              ,#####''   ,,,,##########,,,,          '''####'''          '####       
            ,##' ,,,,###########################,,,                        '##       
           ' ,,###''''                  '''############,,,                           
         ,,##''                                '''############,,,,        ,,,,,,###''
      ,#''                                            '''#######################'''  
     '                                                          ''''####''''         
             ,#######,   #######,   ,#######,      ##                                
            ,#'     '#,  ##    ##  ,#'     '#,    #''#        ,####,   ,####,        
            ##       ##  ##   ,#'  ##            #'  '#       #'       #'  '#        
            ##       ##  #######   ##           ,######,      #####,   #    #        
            '#,     ,#'  ##    ##  '#,     ,#' ,#      #,     #,   #   #,  ,#        
             '#######'   ##     ##  '#######'  #'      '#     '####' # '####'        



                #########################################################
                #                        -***-                          #
                #          Department of theory and spectroscopy        #
                #                                                       #
                #                      Frank Neese                      #
                #                                                       #
                #     Directorship, Architecture, Infrastructure        #
                #                    SHARK, DRIVERS                     #
                #        Core code/Algorithms in most modules           #
                #                                                       #
                #        Max Planck Institute fuer Kohlenforschung      #
                #                Kaiser Wilhelm Platz 1                 #
                #                 D-45470 Muelheim/Ruhr                 #
                #                      Germany                          #
                #                                                       #
                #                  All rights reserved                  #
                #                        -***-                          #
                #########################################################


                         Program Version 6.0.0  -   RELEASE  -


 With contributions from (in alphabetic order):
   Daniel Aravena         : Magnetic Suceptibility
   Michael Atanasov       : Ab Initio Ligand Field Theory (pilot matlab implementation)
   Alexander A. Auer      : GIAO ZORA, VPT2 properties, NMR spectrum
   Ute Becker             : All parallelization in ORCA, NUMFREQ, NUMCALC
   Giovanni Bistoni       : ED, misc. LED, open-shell LED, HFLD
   Martin Brehm           : Molecular dynamics
   Dmytro Bykov           : pre 5.0 version of the SCF Hessian
   Marcos Casanova-Páez   : Triplet and SCS-CIS(D). UHF-(DLPNO)-IP/EA/STEOM-CCSD. UHF-CVS-IP/STEOM-CCSD
   Vijay G. Chilkuri      : MRCI spin determinant printing, contributions to CSF-ICE
   Pauline Colinet        : FMM embedding
   Dipayan Datta          : RHF DLPNO-CCSD density
   Achintya Kumar Dutta   : EOM-CC, STEOM-CC
   Nicolas Foglia         : Exact transition moments, OPA infrastructure, MCD improvements
   Dmitry Ganyushin       : Spin-Orbit,Spin-Spin,Magnetic field MRCI
   Miquel Garcia          : C-PCM and meta-GGA Hessian, CCSD/C-PCM, Gaussian charge scheme
   Tiago L. C. Gouveia    : GS-ROHF, GS-ROCIS
   Yang Guo               : DLPNO-NEVPT2, F12-NEVPT2, CIM, IAO-localization
   Andreas Hansen         : Spin unrestricted coupled pair/coupled cluster methods
   Ingolf Harden          : AUTO-CI MPn and infrastructure 
   Benjamin Helmich-Paris : MC-RPA, TRAH-(SCF,CASSCF), AVAS, COSX integrals, SCF dyn. polar.
   Lee Huntington         : MR-EOM, pCC
   Robert Izsak           : Overlap fitted RIJCOSX, COSX-SCS-MP3, EOM
   Riya Kayal             : Wick's Theorem for AUTO-CI, AUTO-CI UHF-CCSDT
   Emily Kempfer          : AUTO-CI, RHF CISDT and CCSDT
   Christian Kollmar      : KDIIS, OOCD, Brueckner-CCSD(T), CCSD density, CASPT2, CASPT2-K, improved NEVPT2
   Axel Koslowski         : Symmetry handling
   Simone Kossmann        : Meta GGA functionals, TD-DFT gradient, OOMP2, (MP2 Hessian; deprecated post 5.0)
   Lucas Lang             : DCDCAS
   Marvin Lechner         : AUTO-CI (C++ implementation), FIC-MRCC
   Spencer Leger          : CASSCF response
   Dagmar Lenk            : GEPOL surface, SMD, ORCA-2-JSON
   Dimitrios Liakos       : Extrapolation schemes; Compound Job, initial MDCI parallelization
   Dimitrios Manganas     : Further ROCIS development; embedding schemes. LFT, Crystal Embedding
   Dimitrios Pantazis     : SARC Basis sets
   Anastasios Papadopoulos: AUTO-CI, single reference methods and gradients
   Taras Petrenko         : pre 6.0 DFT Hessian and TD-DFT gradient, (ASA, deprecated), ECA, 1-Electron XAS/XES, NRVS
   Peter Pinski           : DLPNO-MP2, DLPNO-MP2 Gradient
   Christoph Reimann      : Effective Core Potentials
   Marius Retegan         : Local ZFS, SOC
   Christoph Riplinger    : Optimizer, TS searches, QM/MM, DLPNO-CCSD(T), (RO)-DLPNO pert. Triples
   Michael Roemelt        : Original ROCIS implementation
   Masaaki Saitow         : Open-shell DLPNO-CCSD energy and density
   Barbara Sandhoefer     : DKH picture change effects
   Kantharuban Sivalingam : CASSCF convergence/infrastructure, NEVPT2 and variants, FIC-MRCI
   Bernardo de Souza      : ESD, SOC TD-DFT
   Georgi Stoychev        : AutoAux, RI-MP2 NMR, DLPNO-MP2 response, X2C
   Van Anh Tran           : RI-MP2 g-tensors
   Willem Van den Heuvel  : Paramagnetic NMR
   Zikuan Wang            : NOTCH, Electric field optimization 
   Frank Wennmohs         : Technical directorship and infrastructure
   Hang Xu                : AUTO-CI-Response properties 


 We gratefully acknowledge several colleagues who have allowed us to
 interface, adapt or use parts of their codes:
   Stefan Grimme, W. Hujo, H. Kruse, P. Pracht,  : VdW corrections, initial TS optimization,
                  C. Bannwarth, S. Ehlert,         DFT functionals, gCP, sTDA/sTD-DF
                  L. Wittmann, M. Mueller
   Ed Valeev, F. Pavosevic, A. Kumar             : LibInt (2-el integral package), F12 methods
   Garnet Chan, S. Sharma, J. Yang, R. Olivares  : DMRG
   Ulf Ekstrom                                   : XCFun DFT Library
   Mihaly Kallay                                 : mrcc  (arbitrary order and MRCC methods)
   Frank Weinhold                                : gennbo (NPA and NBO analysis)
   Simon Mueller                                 : openCOSMO-RS
   Christopher J. Cramer and Donald G. Truhlar   : smd solvation model
   Lars Goerigk                                  : TD-DFT with DH, B97 family of functionals
   V. Asgeirsson, H. Jonsson                     : NEB implementation
   FAccTs GmbH                                   : IRC, NEB, NEB-TS, DLPNO-Multilevel, CI-OPT
                                                   MM, QMMM, 2- and 3-layer-ONIOM, Crystal-QMMM,
                                                   LR-CPCM, SF, NACMEs, symmetry and pop. for TD-DFT,
                                                   nearIR, NL-DFT gradient (VV10), updates on ESD,
                                                   ML-optimized integration grids, MBIS, APM,
                                                   GOAT, DOCKER, SOLVATOR, interface openCOSMO-RS
   S Lehtola, MJT Oliveira, MAL Marques          : LibXC Library
   Liviu Ungur et al                             : ANISO software


 Your calculation uses the libint2 library for the computation of 2-el integrals
 For citations please refer to: http://libint.valeyev.net

 Your ORCA version has been built with support for libXC version: 6.2.2
 For citations please refer to: https://libxc.gitlab.io

 This ORCA versions uses:
   CBLAS   interface :  Fast vector & matrix operations
   LAPACKE interface :  Fast linear algebra routines
   SCALAPACK package :  Parallel linear algebra routines
   Shared memory     :  Shared parallel matrices
   BLAS/LAPACK       :  OpenBLAS 0.3.27  USE64BITINT DYNAMIC_ARCH NO_AFFINITY SkylakeX SINGLE_THREADED
        Core in use  :  SkylakeX
   Copyright (c) 2011-2014, The OpenBLAS Project


Your calculation utilizes the atom-pairwise dispersion correction
with the Becke-Johnson damping scheme (D3BJ)


Warning: RI is on but no J-basis has been assigned. Assigning Def2/J (nothing to worry about!)
================================================================================

----- Orbital basis set information -----
Your calculation utilizes the basis: def2-TZVPPD
   F. Weigend and R. Ahlrichs, Phys. Chem. Chem. Phys. 7, 3297 (2005).
   D. Rappoport and F. Furche, J. Chem. Phys. 133, 134105 (2010)
   D. Rappoport, J. Chem. Phys. 155, 124102 (2021).

----- AuxJ basis set information -----
Your calculation utilizes the auxiliary basis: def2/J
   F. Weigend, Phys. Chem. Chem. Phys. 8, 1057 (2006).

================================================================================
                                        WARNINGS
                       Please study these warnings very carefully!
================================================================================

Using LibXC functional ID 531 : wB97M-V exchange-correlation functional
[ 1]  N. Mardirossian and M. Head-Gordon.,  J. Chem. Phys. 144, 214110 (2016)
Using LibXC functional ID 531 : wB97M-V exchange-correlation functional
[ 1]  N. Mardirossian and M. Head-Gordon.,  J. Chem. Phys. 144, 214110 (2016)

WARNING: B97M-V or wB97M-V functional requested.
  ===> : libXC variant has now been activated.
         Any manually given DFX/HFX/RangeSep scaling parameters are IGNORED!

Your calculation utilizes LibXC
 by S Lehtola, C Steigemann, MJT Oliveira & MAL Marques
Please cite in your paper:
 S Lehtola, C Steigemann, MJT Oliveira & MAL Marques, SoftwareX, 7, (2018), 1.
   


WARNING: Geometry Optimization
  ===> : Switching off AutoStart
         For restart on a previous wavefunction, please use MOREAD

================================================================================
                                       INPUT FILE
================================================================================
NAME = orca.inp
|  1> ! opt def2-TZVPPD wB97M-D3BJ 
|  2> %pal nprocs 8 end%pal nprocs 32 end 
|  3> %geom Constraints 
|  4> {B 9 8 3.2 C} 
|  5> {A 8 9 11 61.42857142857143 C} 
|  6> end 
|  7> MaxIter 300 
|  8> end 
|  9> *xyz 0 1 
| 10> O   2.98579685529314 0.88758230159078 -0.86184571092411
| 11> O   -0.03983205397054 0.68929041702508 -2.10362336723772
| 12> O   0.93431434349854 -3.13274393337945 -0.68767288184107
| 13> O   -3.75829998830163 -0.84727300865116 -0.0472717177755
| 14> N   0.21184538946282 -1.54604804365365 0.7617588924445
| 15> N   -2.13631993928911 0.03188773433438 1.27350571071531
| 16> N   2.02598672506387 -1.14318467211666 -0.64531219127023
| 17> N   -1.91814233924584 0.03137116037665 -1.04498946748291
| 18> C   1.18097737274226 0.71693507080484 0.70173889017321
| 19> C   -0.20686880480777 1.27024627933494 0.21345042231937
| 20> C   0.41441080275909 -0.34173258966541 1.52336266615173
| 21> C   -0.82922175114212 0.58960593673968 1.44434972027296
| 22> C   1.92822011286806 1.69488653817281 1.5963734975385
| 23> C   -0.37809776891576 2.77134929626422 0.04819649358288
| 24> C   2.1403947470937 0.1972384729179 -0.35038567829864
| 25> C   -0.67361678962426 0.6214190571346 -1.0793014500539
| 26> C   1.04142578622994 -2.02697492875068 -0.21027082435993
| 27> C   -2.68467002550422 -0.30396816036989 0.07167054343891
| 28> H   0.80817443950001 -0.54572267081061 2.51895215321335
| 29> H   -0.83785272399001 1.27240685039143 2.28901317073582
| 30> H   2.31167340578204 2.52284411740894 1.00913016264629
| 31> H   1.28982602448342 2.08257620823614 2.38710022492991
| 32> H   2.77390820759972 1.19140411795486 2.06045858523949
| 33> H   -1.41857211141493 3.00964947214868 -0.16882755561625
| 34> H   -0.09065531563179 3.29799318042223 0.95389844358819
| 35> H   0.23426221611057 3.12492645074476 -0.77764887675592
| 36> H   -0.46772570547622 -2.21560145172536 1.0787081584806
| 37> H   -2.71769301149571 -0.17090724573546 2.06627440900372
| 38> H   2.60065167263658 -1.49057255715425 -1.3966820077142
| 39> H   -2.27169977231386 -0.32388339999036 -1.91951041514436
| 40> *
| 41> 
| 42>                          ****END OF INPUT****
================================================================================

                       *****************************
                       * Geometry Optimization Run *
                       *****************************

Geometry optimization settings:
Update method            Update   .... BFGS
Choice of coordinates    CoordSys .... (2022) Redundant Internals
Initial Hessian          InHess   .... Almloef's Model
Max. no of cycles        MaxIter  .... 300

Convergence Tolerances:
Energy Change            TolE     ....  5.0000e-06 Eh
Max. Gradient            TolMAXG  ....  3.0000e-04 Eh/bohr
RMS Gradient             TolRMSG  ....  1.0000e-04 Eh/bohr
Max. Displacement        TolMAXD  ....  4.0000e-03 bohr
RMS Displacement         TolRMSD  ....  2.0000e-03 bohr
Strict Convergence                .... False

------------------------------------------------------------------------------
                        ORCA OPTIMIZATION COORDINATE SETUP
------------------------------------------------------------------------------

The optimization will be done in redundant internal coordinates (2022)
Making redundant internal coordinates   ...  (2022 redundants) done
Evaluating the initial hessian          ...  (Almloef) done
Evaluating the coordinates              ...  done
Calculating the B-matrix                .... done
Calculating the G-matrix                .... done
Diagonalizing the G-matrix              .... done
Decreasing the constraint accuracy, check your results carefully!
The first mode is                       ....   88
The number of degrees of freedom        ....   84
Storing new coordinates                 .... done

    -----------------------------------------------------------------
                    Redundant Internal Coordinates


    -----------------------------------------------------------------
         Definition                    Initial Value    Approx d2E/dq
    -----------------------------------------------------------------
      1. B(C   9,C   8)                  3.2000         0.320344 C 
      2. B(C  10,N   4)                  1.4341         0.466977   
      3. B(C  10,C   8)                  1.5990         0.355045   
      4. B(C  11,C   9)                  1.7420         0.362641   
      5. B(C  11,C  10)                  1.9178         0.339897   
      6. B(C  11,N   5)                  1.4747         0.480746   
      7. B(C  12,C   8)                  1.5265         0.385345   
      8. B(C  13,C   9)                  1.5387         0.387770   
      9. B(C  14,O   0)                  1.2268         1.102736   
     10. B(C  14,N   6)                  1.3948         0.586441   
     11. B(C  14,C   8)                  1.5058         0.393636   
     12. B(C  15,O   1)                  1.2217         1.098286   
     13. B(C  15,N   7)                  1.3636         0.585369   
     14. B(C  15,C   9)                  1.5190         0.387723   
     15. B(C  16,O   2)                  1.2145         1.087341   
     16. B(C  16,N   4)                  1.3951         0.612509   
     17. B(C  16,N   6)                  1.4524         0.554006   
     18. B(C  17,O   3)                  1.2223         1.087510   
     19. B(C  17,N   5)                  1.3838         0.617844   
     20. B(C  17,N   7)                  1.4064         0.548746   
     21. B(H  18,C  10)                  1.0973         0.360246   
     22. B(H  19,C  11)                  1.0908         0.365213   
     23. B(H  20,C  12)                  1.0972         0.366664   
     24. B(H  21,C  12)                  1.0935         0.363151   
     25. B(H  22,C  12)                  1.0994         0.362563   
     26. B(H  23,C  13)                  1.1069         0.361089   
     27. B(H  24,C  13)                  1.0896         0.364889   
     28. B(H  25,C  13)                  1.1005         0.363812   
     29. B(H  26,N   4)                  1.0254         0.440286   
     30. B(H  27,N   5)                  1.0130         0.442686   
     31. B(H  28,N   6)                  1.0174         0.436367   
     32. B(H  29,N   7)                  1.0102         0.435953   
     33. A(C  16,N   4,H  26)          114.8293         0.358987   
     34. A(C  10,N   4,H  26)          120.3378         0.342908   
     35. A(C  10,N   4,C  16)          123.3988         0.406446   
     36. A(C  11,N   5,H  27)          116.8339         0.344898   
     37. A(C  11,N   5,C  17)          132.8222         0.409168   
     38. A(C  17,N   5,H  27)          110.3398         0.359850   
     39. A(C  14,N   6,H  28)          115.6676         0.355801   
     40. A(C  16,N   6,H  28)          115.0467         0.352388   
     41. A(C  14,N   6,C  16)          128.0870         0.415733   
     42. A(C  15,N   7,C  17)          125.9513         0.414893   
     43. A(C  17,N   7,H  29)          115.7499         0.351763   
     44. A(C  15,N   7,H  29)          117.6516         0.355634   
     45. A(C   9,C   8,C  14)          124.6344         0.357126   
     46. A(C  10,C   8,C  12)          116.2890         0.362122   
     47. A(C  10,C   8,C  14)          123.5557         0.363441   
     48. A(C   9,C   8,C  12)          115.9551         0.355837   
     49. A(C  12,C   8,C  14)          103.7607         0.368575   
     50. A(C   9,C   8,C  10)           70.9708         0.350937   
     51. A(C   8,C   9,C  15)          114.2030         0.356209   
     52. A(C  11,C   9,C  15)          117.8349         0.363816   
     53. A(C   8,C   9,C  13)          133.0065         0.356216   
     54. A(C  13,C   9,C  15)           99.0091         0.368015   
     55. A(C   8,C   9,C  11)           61.4212         0.352195 C 
     56. A(C  11,C   9,C  13)          129.9017         0.363823   
     57. A(N   4,C  10,C   8)          110.7195         0.371914   
     58. A(N   4,C  10,H  18)          116.4724         0.334496   
     59. A(C   8,C  10,H  18)          106.0552         0.321646   
     60. A(C  11,C  10,H  18)          113.1419         0.319361   
     61. A(N   4,C  10,C  11)          103.9303         0.369136   
     62. A(C   8,C  10,C  11)          106.1531         0.354473   
     63. A(N   5,C  11,C  10)          115.9969         0.370984   
     64. A(C   9,C  11,C  10)          114.2800         0.355748   
     65. A(N   5,C  11,C   9)           99.5645         0.375149   
     66. A(N   5,C  11,H  19)          108.2330         0.336883   
     67. A(C   9,C  11,H  19)          111.1415         0.323489   
     68. A(C  10,C  11,H  19)          107.4240         0.320077   
     69. A(C   8,C  12,H  20)          110.5655         0.326948   
     70. A(C   8,C  12,H  21)          111.0701         0.326430   
     71. A(H  20,C  12,H  21)          109.1942         0.292054   
     72. A(C   8,C  12,H  22)          109.4269         0.326343   
     73. A(H  20,C  12,H  22)          107.9741         0.291979   
     74. A(H  21,C  12,H  22)          108.5334         0.291537   
     75. A(H  23,C  13,H  25)          108.3655         0.291434   
     76. A(C   9,C  13,H  23)          110.1831         0.326461   
     77. A(C   9,C  13,H  24)          110.4777         0.327024   
     78. A(H  23,C  13,H  24)          108.6816         0.291570   
     79. A(C   9,C  13,H  25)          110.5680         0.326865   
     80. A(H  24,C  13,H  25)          108.5030         0.291914   
     81. A(O   0,C  14,C   8)          125.1118         0.440771   
     82. A(N   6,C  14,C   8)          110.5569         0.393922   
     83. A(O   0,C  14,N   6)          124.3043         0.470819   
     84. A(O   1,C  15,N   7)          122.9951         0.470312   
     85. A(O   1,C  15,C   9)          122.4624         0.439248   
     86. A(N   7,C  15,C   9)          114.5055         0.392753   
     87. A(O   2,C  16,N   4)          121.0581         0.473371   
     88. A(O   2,C  16,N   6)          120.4562         0.464736   
     89. A(N   4,C  16,N   6)          118.4856         0.418965   
     90. A(O   3,C  17,N   7)          120.6012         0.463939   
     91. A(N   5,C  17,N   7)          117.2575         0.418900   
     92. A(O   3,C  17,N   5)          122.0996         0.474140   
     93. D(C  11,C   9,C   8,C  10)     19.7690         0.008410   
     94. D(C  11,C   9,C   8,C  12)    -90.9125         0.008410   
     95. D(C  11,C   9,C   8,C  14)    137.9587         0.008410   
     96. D(C  13,C   9,C   8,C  10)    139.1629         0.008410   
     97. D(C  13,C   9,C   8,C  12)     28.4813         0.008410   
     98. D(C  13,C   9,C   8,C  14)   -102.6474         0.008410   
     99. D(N   4,C  10,C   8,C  12)   -153.8890         0.010134   
    100. D(C   8,C  10,N   4,H  26)   -170.7342         0.018626   
    101. D(C  11,C  10,N   4,C  16)    137.2441         0.018626   
    102. D(C  11,C  10,C   8,C  14)   -135.8273         0.010134   
    103. D(N   4,C  10,C   8,C  14)    -23.6468         0.010134   
    104. D(C   8,C  10,N   4,C  16)     23.6485         0.018626   
    105. D(C  11,C  10,N   4,H  26)    -57.1387         0.018626   
    106. D(C  11,C  10,C   8,C  12)     93.9304         0.010134   
    107. D(H  18,C  10,N   4,C  16)    -97.5957         0.018626   
    108. D(N   4,C  10,C   8,C   9)     95.8682         0.010134   
    109. D(C  11,C  10,C   8,C   9)    -16.3123         0.010134   
    110. D(C   9,C  11,N   5,H  27)   -155.7834         0.019770   
    111. D(N   5,C  11,C  10,N   4)     30.5312         0.009355   
    112. D(C   9,C  11,N   5,C  17)     25.0337         0.019770   
    113. D(C  10,C  11,C   9,C   8)    -17.0053         0.010540   
    114. D(C  10,C  11,N   5,C  17)    -98.0665         0.019770   
    115. D(H  19,C  11,N   5,C  17)    141.1758         0.019770   
    116. D(C  10,C  11,C   9,C  13)   -140.8522         0.010540   
    117. D(C  10,C  11,N   5,H  27)     81.1164         0.019770   
    118. D(N   5,C  11,C   9,C  15)    -37.4090         0.010540   
    119. D(N   5,C  11,C  10,H  18)    -96.7319         0.009355   
    120. D(N   5,C  11,C   9,C   8)   -141.3135         0.010540   
    121. D(N   5,C  11,C   9,C  13)     94.8396         0.010540   
    122. D(C  10,C  11,C   9,C  15)     86.8992         0.010540   
    123. D(N   5,C  11,C  10,C   8)    147.3607         0.009355   
    124. D(C   9,C  11,C  10,N   4)    -84.4794         0.009355   
    125. D(C   9,C  11,C  10,C   8)     32.3502         0.009355   
    126. D(C   9,C  11,C  10,H  18)    148.2576         0.009355   
    127. D(H  20,C  12,C   8,C   9)    -80.8715         0.011818   
    128. D(H  20,C  12,C   8,C  10)   -161.4324         0.011818   
    129. D(H  20,C  12,C   8,C  14)     59.4804         0.011818   
    130. D(H  21,C  12,C   8,C   9)     40.5182         0.011818   
    131. D(H  21,C  12,C   8,C  10)    -40.0427         0.011818   
    132. D(H  21,C  12,C   8,C  14)   -179.1299         0.011818   
    133. D(H  23,C  13,C   9,C   8)   -163.3336         0.011960   
    134. D(H  23,C  13,C   9,C  11)    -77.5074         0.011960   
    135. D(H  23,C  13,C   9,C  15)     60.9816         0.011960   
    136. D(H  24,C  13,C   9,C   8)    -43.2305         0.011960   
    137. D(H  24,C  13,C   9,C  11)     42.5957         0.011960   
    138. D(H  24,C  13,C   9,C  15)   -178.9152         0.011960   
    139. D(N   6,C  14,C   8,C  10)      8.3215         0.011517   
    140. D(O   0,C  14,N   6,H  28)     -5.8027         0.027624   
    141. D(C   8,C  14,N   6,C  16)      9.2482         0.027624   
    142. D(C   8,C  14,N   6,H  28)    176.0076         0.027624   
    143. D(O   0,C  14,C   8,C   9)    101.1441         0.011517   
    144. D(O   0,C  14,C   8,C  10)   -169.8505         0.011517   
    145. D(O   0,C  14,C   8,C  12)    -34.6473         0.011517   
    146. D(O   0,C  14,N   6,C  16)   -172.5621         0.027624   
    147. D(N   6,C  14,C   8,C   9)    -80.6839         0.011517   
    148. D(N   7,C  15,C   9,C   8)    105.7661         0.011191   
    149. D(O   1,C  15,N   7,H  29)     -4.6675         0.027516   
    150. D(C   9,C  15,N   7,C  17)    -16.4829         0.027516   
    151. D(C   9,C  15,N   7,H  29)    173.1670         0.027516   
    152. D(O   1,C  15,C   9,C   8)    -76.3865         0.011191   
    153. D(O   1,C  15,C   9,C  11)   -145.5466         0.011191   
    154. D(O   1,C  15,N   7,C  17)    165.6825         0.027516   
    155. D(O   1,C  15,C   9,C  13)     69.5503         0.011191   
    156. D(N   7,C  15,C   9,C  11)     36.6059         0.011191   
    157. D(O   2,C  16,N   4,C  10)    170.4166         0.030322   
    158. D(O   2,C  16,N   4,H  26)      4.0801         0.030322   
    159. D(N   6,C  16,N   4,C  10)     -9.6814         0.030322   
    160. D(N   6,C  16,N   4,H  26)   -176.0179         0.030322   
    161. D(O   2,C  16,N   6,C  14)    170.0241         0.024482   
    162. D(O   2,C  16,N   6,H  28)      3.1956         0.024482   
    163. D(N   4,C  16,N   6,C  14)     -9.8785         0.024482   
    164. D(N   4,C  16,N   6,H  28)   -176.7070         0.024482   
    165. D(O   3,C  17,N   5,C  11)    173.6959         0.030894   
    166. D(O   3,C  17,N   5,H  27)     -5.5265         0.030894   
    167. D(N   7,C  17,N   5,C  11)     -8.6423         0.030894   
    168. D(N   7,C  17,N   5,H  27)    172.1353         0.030894   
    169. D(O   3,C  17,N   7,C  15)    178.3436         0.023995   
    170. D(O   3,C  17,N   7,H  29)    -11.1450         0.023995   
    171. D(N   5,C  17,N   7,C  15)      0.6448         0.023995   
    172. D(N   5,C  17,N   7,H  29)    171.1562         0.023995   
    -----------------------------------------------------------------

Number of atoms                         .... 30
Number of degrees of freedom            .... 172


         *************************************************************
         *                GEOMETRY OPTIMIZATION CYCLE   1            *
         *************************************************************
---------------------------------
CARTESIAN COORDINATES (ANGSTROEM)
---------------------------------
  O      3.973626    0.372590   -0.344602
  O     -0.913046    1.383455   -2.486338
  O      1.079251   -3.229546   -0.577066
  O     -3.876247   -0.987304    0.028616
  N      0.383271   -1.532512    0.766562
  N     -2.150107    0.028677    1.121509
  N      2.575085   -1.477525   -0.320499
  N     -2.457777    0.291556   -1.226187
  C      1.897071    0.448251    0.912275
  C     -0.854752    1.726075   -0.104868
  C      0.677232   -0.366728    1.548404
  C     -0.874595    0.738872    1.330245
  C      2.714726    1.303625    1.876621
  C     -1.325239    3.176362   -0.311804
  C      2.935361   -0.172622    0.015661
  C     -1.385765    1.117868   -1.391506
  C      1.313653   -2.151913   -0.068335
  C     -2.879285   -0.281438   -0.012916
  H      0.941294   -0.536715    2.599843
  H     -0.967998    1.351488    2.227913
  H      3.293274    2.057184    1.327763
  H      2.068314    1.804995    2.602303
  H      3.422652    0.663867    2.422647
  H     -2.428766    3.212333   -0.390415
  H     -1.014425    3.801016    0.525082
  H     -0.897968    3.593254   -1.236374
  H     -0.459198   -2.085156    0.957272
  H     -2.614329   -0.329891    1.947422
  H      3.192341   -1.949889   -0.977036
  H     -2.915054   -0.055227   -2.057593

----------------------------
CARTESIAN COORDINATES (A.U.)
----------------------------
  NO LB      ZA    FRAG     MASS         X           Y           Z
   0 O     8.0000    0    15.999    7.509066    0.704092   -0.651203
   1 O     8.0000    0    15.999   -1.725408    2.614351   -4.698498
   2 O     8.0000    0    15.999    2.039489   -6.102957   -1.090496
   3 O     8.0000    0    15.999   -7.325045   -1.865733    0.054077
   4 N     7.0000    0    14.007    0.724277   -2.896029    1.448592
   5 N     7.0000    0    14.007   -4.063114    0.054191    2.119345
   6 N     7.0000    0    14.007    4.866205   -2.792117   -0.605655
   7 N     7.0000    0    14.007   -4.644526    0.550962   -2.317158
   8 C     6.0000    0    12.011    3.584944    0.847071    1.723949
   9 C     6.0000    0    12.011   -1.615248    3.261808   -0.198171
  10 C     6.0000    0    12.011    1.279784   -0.693016    2.926060
  11 C     6.0000    0    12.011   -1.652745    1.396265    2.513799
  12 C     6.0000    0    12.011    5.130089    2.463494    3.546300
  13 C     6.0000    0    12.011   -2.504338    6.002455   -0.589223
  14 C     6.0000    0    12.011    5.547029   -0.326208    0.029594
  15 C     6.0000    0    12.011   -2.618716    2.112464   -2.629565
  16 C     6.0000    0    12.011    2.482444   -4.066527   -0.129135
  17 C     6.0000    0    12.011   -5.441061   -0.531840   -0.024408
  18 H     1.0000    0     1.008    1.778788   -1.014244    4.912992
  19 H     1.0000    0     1.008   -1.829251    2.553942    4.210145
  20 H     1.0000    0     1.008    6.223385    3.887515    2.509108
  21 H     1.0000    0     1.008    3.908546    3.410946    4.917640
  22 H     1.0000    0     1.008    6.467875    1.254527    4.578139
  23 H     1.0000    0     1.008   -4.589703    6.070429   -0.737777
  24 H     1.0000    0     1.008   -1.916985    7.182878    0.992261
  25 H     1.0000    0     1.008   -1.696914    6.790265   -2.336408
  26 H     1.0000    0     1.008   -0.867758   -3.940373    1.808982
  27 H     1.0000    0     1.008   -4.940365   -0.623404    3.680094
  28 H     1.0000    0     1.008    6.032651   -3.684757   -1.846331
  29 H     1.0000    0     1.008   -5.508654   -0.104364   -3.888287

--------------------------------
INTERNAL COORDINATES (ANGSTROEM)
--------------------------------
 O      0   0   0     0.000000000000     0.00000000     0.00000000
 O      1   0   0     3.276547224713     0.00000000     0.00000000
 O      2   1   0     4.190682946307    73.29092113     0.00000000
 O      2   1   3     4.518474637089   127.44709352    53.95475711
 N      3   2   1     2.267248928620    60.24193841    80.78937904
 N      4   2   1     2.268963619588    62.92622666    27.43118870
 N      1   2   3     2.256576334345    65.74096506   357.61235796
 N      2   1   3     2.254243334192   127.52491870    57.66431925
 C      1   2   3     2.394011413247    63.06732880   286.37055960
 C      9   1   2     1.571844755014   115.95449945   332.88544696
 C      5   3   2     1.439252850441   151.52652991   286.18182125
 C      6   4   2     1.431343055439   150.83977748   355.05159247
 C      9   1   2     1.521555738675    88.16429934   218.15250995
 C     10   9   1     1.519848178782   118.74569578   289.79399729
 C      1   2   3     1.205350858177    58.56645480   322.99572470
 C      2   1   3     1.206451409160    99.59764305    73.76644980
 C      3   2   1     1.209177686384    47.15301651    46.62139346
 C      4   2   1     1.209135524532    32.99112947    29.98848261
 H     11   5   3     1.089889985995   112.18610762   269.23059945
 H     12   6   4     1.086162016425   109.29975388   150.93446994
 H     13   9   1     1.085082907080   110.22864580    44.99621095
 H     13   9   1     1.087703567048   111.61009477   166.52742608
 H     13   9   1     1.088144232014   109.57581940   286.25790409
 H     14  10   9     1.089253537592   110.20351681   187.26232421
 H     14  10   9     1.086403685061   110.99745457   307.14572518
 H     14  10   9     1.087208412008   109.89763282    67.87223600
 H      5   3   2     1.005273831639    87.18304645   127.88417897
 H      6   4   2     1.003794133283    88.13320973   180.35863417
 H      7   1   2     1.007707668772    89.77821731   104.06503618
 H      8   2   1     1.007966045578    89.29448577   210.74819076

---------------------------
INTERNAL COORDINATES (A.U.)
---------------------------
 O      0   0   0     0.000000000000     0.00000000     0.00000000
 O      1   0   0     6.191776919568     0.00000000     0.00000000
 O      2   1   0     7.919243082615    73.29092113     0.00000000
 O      2   1   3     8.538679607168   127.44709352    53.95475711
 N      3   2   1     4.284479552517    60.24193841    80.78937904
 N      4   2   1     4.287719848851    62.92622666    27.43118870
 N      1   2   3     4.264311272200    65.74096506   357.61235796
 N      2   1   3     4.259902540841   127.52491870    57.66431925
 C      1   2   3     4.524025932519    63.06732880   286.37055960
 C      9   1   2     2.970356112017   115.95449945   332.88544696
 C      5   3   2     2.719793724800   151.52652991   286.18182125
 C      6   4   2     2.704846378470   150.83977748   355.05159247
 C      9   1   2     2.875323643591    88.16429934   218.15250995
 C     10   9   1     2.872096823037   118.74569578   289.79399729
 C      1   2   3     2.277783017241    58.56645480   322.99572470
 C      2   1   3     2.279862757196    99.59764305    73.76644980
 C      3   2   1     2.285014674514    47.15301651    46.62139346
 C      4   2   1     2.284935000161    32.99112947    29.98848261
 H     11   5   3     2.059593589634   112.18610762   269.23059945
 H     12   6   4     2.052548748110   109.29975388   150.93446994
 H     13   9   1     2.050509526980   110.22864580    44.99621095
 H     13   9   1     2.055461856610   111.61009477   166.52742608
 H     13   9   1     2.056294592713   109.57581940   286.25790409
 H     14  10   9     2.058390876454   110.20351681   187.26232421
 H     14  10   9     2.053005435648   110.99745457   307.14572518
 H     14  10   9     2.054526149191   109.89763282    67.87223600
 H      5   3   2     1.899692231395    87.18304645   127.88417897
 H      6   4   2     1.896896006743    88.13320973   180.35863417
 H      7   1   2     1.904291517032    89.77821731   104.06503618
 H      8   2   1     1.904779778434    89.29448577   210.74819076

---------------------
BASIS SET INFORMATION
---------------------
There are 4 groups of distinct atoms

 Group   1 Type O   : 12s7p3d1f contracted to 6s4p3d1f pattern {621111/4111/111/1}
 Group   2 Type N   : 12s6p3d1f contracted to 6s3p3d1f pattern {621111/411/111/1}
 Group   3 Type C   : 12s6p3d1f contracted to 6s3p3d1f pattern {621111/411/111/1}
 Group   4 Type H   : 5s3p1d contracted to 3s3p1d pattern {311/111/1}

Atom   0O    basis set group =>   1
Atom   1O    basis set group =>   1
Atom   2O    basis set group =>   1
Atom   3O    basis set group =>   1
Atom   4N    basis set group =>   2
Atom   5N    basis set group =>   2
Atom   6N    basis set group =>   2
Atom   7N    basis set group =>   2
Atom   8C    basis set group =>   3
Atom   9C    basis set group =>   3
Atom  10C    basis set group =>   3
Atom  11C    basis set group =>   3
Atom  12C    basis set group =>   3
Atom  13C    basis set group =>   3
Atom  14C    basis set group =>   3
Atom  15C    basis set group =>   3
Atom  16C    basis set group =>   3
Atom  17C    basis set group =>   3
Atom  18H    basis set group =>   4
Atom  19H    basis set group =>   4
Atom  20H    basis set group =>   4
Atom  21H    basis set group =>   4
Atom  22H    basis set group =>   4
Atom  23H    basis set group =>   4
Atom  24H    basis set group =>   4
Atom  25H    basis set group =>   4
Atom  26H    basis set group =>   4
Atom  27H    basis set group =>   4
Atom  28H    basis set group =>   4
Atom  29H    basis set group =>   4
---------------------------------
AUXILIARY/J BASIS SET INFORMATION
---------------------------------
There are 4 groups of distinct atoms

 Group   1 Type O   : 12s5p4d2f1g contracted to 6s4p3d1f1g pattern {711111/2111/211/2/1}
 Group   2 Type N   : 12s5p4d2f1g contracted to 6s4p3d1f1g pattern {711111/2111/211/2/1}
 Group   3 Type C   : 12s5p4d2f1g contracted to 6s4p3d1f1g pattern {711111/2111/211/2/1}
 Group   4 Type H   : 5s2p1d contracted to 3s1p1d pattern {311/2/1}

Atom   0O    basis set group =>   1
Atom   1O    basis set group =>   1
Atom   2O    basis set group =>   1
Atom   3O    basis set group =>   1
Atom   4N    basis set group =>   2
Atom   5N    basis set group =>   2
Atom   6N    basis set group =>   2
Atom   7N    basis set group =>   2
Atom   8C    basis set group =>   3
Atom   9C    basis set group =>   3
Atom  10C    basis set group =>   3
Atom  11C    basis set group =>   3
Atom  12C    basis set group =>   3
Atom  13C    basis set group =>   3
Atom  14C    basis set group =>   3
Atom  15C    basis set group =>   3
Atom  16C    basis set group =>   3
Atom  17C    basis set group =>   3
Atom  18H    basis set group =>   4
Atom  19H    basis set group =>   4
Atom  20H    basis set group =>   4
Atom  21H    basis set group =>   4
Atom  22H    basis set group =>   4
Atom  23H    basis set group =>   4
Atom  24H    basis set group =>   4
Atom  25H    basis set group =>   4
Atom  26H    basis set group =>   4
Atom  27H    basis set group =>   4
Atom  28H    basis set group =>   4
Atom  29H    basis set group =>   4


           ************************************************************
           *        Program running with 32 parallel MPI-processes    *
           *              working on a common directory               *
           ************************************************************
------------------------------------------------------------------------------
                             ORCA STARTUP CALCULATIONS
                           -- RI-GTO INTEGRALS CHOSEN --
------------------------------------------------------------------------------
------------------------------------------------------------------------------
                   ___                                                        
                  /   \      - P O W E R E D   B Y -                         
                 /     \                                                     
                 |  |  |   _    _      __       _____    __    __             
                 |  |  |  | |  | |    /  \     |  _  \  |  |  /  |          
                  \  \/   | |  | |   /    \    | | | |  |  | /  /          
                 / \  \   | |__| |  /  /\  \   | |_| |  |  |/  /          
                |  |  |   |  __  | /  /__\  \  |    /   |      \           
                |  |  |   | |  | | |   __   |  |    \   |  |\   \          
                \     /   | |  | | |  |  |  |  | |\  \  |  | \   \       
                 \___/    |_|  |_| |__|  |__|  |_| \__\ |__|  \__/        
                                                                              
                      - O R C A' S   B I G   F R I E N D -                    
                                      &                                       
                       - I N T E G R A L  F E E D E R -                       
                                                                              
 v1 FN, 2020, v2 2021, v3 2022-2024                                           
------------------------------------------------------------------------------


----------------------
SHARK INTEGRAL PACKAGE
----------------------

Number of atoms                             ...     30
Number of basis functions                   ...    882
Number of shells                            ...    322
Maximum angular momentum                    ...      3
Integral batch strategy                     ... SHARK/LIBINT Hybrid
RI-J (if used) integral strategy            ... SPLIT-RIJ (Revised 2003 algorithm where possible)
Printlevel                                  ...      1
Contraction scheme used                     ... SEGMENTED contraction
Prescreening option                         ... SCHWARTZ
   Thresh                                   ... 2.500e-11
   Tcut                                     ... 2.500e-12
   Tpresel                                  ... 2.500e-12 
Coulomb Range Separation                    ... NOT USED
Exchange Range Separation                   ... Long Range
   Mu parameter                             ... 3.000e-01
   Scaling (regular/separated)              ... 1.500e-01 8.500e-01
Multipole approximations                    ... NOT USED
Finite Nucleus Model                        ... NOT USED
CABS basis                                  ... NOT available
Auxiliary Coulomb fitting basis             ... AVAILABLE
   # of basis functions in Aux-J            ...   1014
   # of shells in Aux-J                     ...    330
   Maximum angular momentum in Aux-J        ...      4
Auxiliary J/K fitting basis                 ... NOT available
Auxiliary Correlation fitting basis         ... NOT available
Auxiliary 'external' fitting basis          ... NOT available

Checking pre-screening integrals            ... done (  0.0 sec) Dimension = 322
Check shell pair data                       ... done (  0.0 sec)
Shell pair information
Shell pair cut-off parameter TPreSel        ...   2.5e-12
Total number of shell pairs                 ...     52003
Shell pairs after pre-screening             ...     43058
Total number of primitive shell pairs       ...    129718
Primitive shell pairs kept                  ...     79630
          la=0 lb=0:   8379 shell pairs
          la=1 lb=0:  11468 shell pairs
          la=1 lb=1:   3968 shell pairs
          la=2 lb=0:   7753 shell pairs
          la=2 lb=1:   5339 shell pairs
          la=2 lb=2:   1828 shell pairs
          la=3 lb=0:   1914 shell pairs
          la=3 lb=1:   1370 shell pairs
          la=3 lb=2:    922 shell pairs
          la=3 lb=3:    117 shell pairs

Calculating one electron integrals          ... done (  0.1 sec)
Calculating RI/J V-Matrix + Cholesky decomp.... done (  0.0 sec)
Calculating Nuclear repulsion               ... done (  0.0 sec) ENN=   1349.201324196070 Eh

Diagonalization of the overlap matrix:
Smallest eigenvalue                        ... 1.783e-06
Time for diagonalization                   ...    0.164 sec
Threshold for overlap eigenvalues          ... 1.000e-07
Number of eigenvalues below threshold      ... 0
Time for construction of square roots      ...    0.085 sec
Total time needed                          ...    0.256 sec

-------------------
DFT GRID GENERATION
-------------------

General Integration Accuracy     IntAcc      ... 4.388
Radial Grid Type                 RadialGrid  ... OptM3 with GC (2021)
Angular Grid (max. ang.)         AngularGrid ... 4 (Lebedev-302)
Angular grid pruning method      GridPruning ... 4 (adaptive)
Weight generation scheme         WeightScheme... mBecke (2022)
Basis function cutoff            BFCut       ... 1.0000e-11
Integration weight cutoff        WCut        ... 1.0000e-14
Partially contracted basis set               ... off
Rotationally invariant grid construction     ... off
Angular grids for H and He will be reduced by one unit
Diffuse basis detected: some atoms will have their outermost
                        angular grid increased by 1.

Total number of grid points                  ...   153173
Total number of batches                      ...     2408
Average number of points per batch           ...       63
Average number of grid points per atom       ...     5106

--------------------
COSX GRID GENERATION
--------------------

GRIDX 1
-------
General Integration Accuracy     IntAcc      ... 3.816
Radial Grid Type                 RadialGrid  ... OptM3 with GC (2021)
Angular Grid (max. ang.)         AngularGrid ... 1 (Lebedev-50)
Angular grid pruning method      GridPruning ... 4 (adaptive)
Weight generation scheme         WeightScheme... mBecke (2022)
Basis function cutoff            BFCut       ... 1.0000e-11
Integration weight cutoff        WCut        ... 1.0000e-14
Partially contracted basis set               ... on
Rotationally invariant grid construction     ... off
Angular grids for H and He will be reduced by one unit
Diffuse basis detected: some atoms will have their outermost
                        angular grid increased by 1.

Total number of grid points                  ...    19177
Total number of batches                      ...      167
Average number of points per batch           ...      114
Average number of grid points per atom       ...      639
UseSFitting                                  ... on

GRIDX 2
-------
General Integration Accuracy     IntAcc      ... 4.020
Radial Grid Type                 RadialGrid  ... OptM3 with GC (2021)
Angular Grid (max. ang.)         AngularGrid ... 2 (Lebedev-110)
Angular grid pruning method      GridPruning ... 4 (adaptive)
Weight generation scheme         WeightScheme... mBecke (2022)
Basis function cutoff            BFCut       ... 1.0000e-11
Integration weight cutoff        WCut        ... 1.0000e-14
Partially contracted basis set               ... on
Rotationally invariant grid construction     ... off
Angular grids for H and He will be reduced by one unit
Diffuse basis detected: some atoms will have their outermost
                        angular grid increased by 1.

Total number of grid points                  ...    46531
Total number of batches                      ...      381
Average number of points per batch           ...      122
Average number of grid points per atom       ...     1551
UseSFitting                                  ... on

GRIDX 3
-------
General Integration Accuracy     IntAcc      ... 4.338
Radial Grid Type                 RadialGrid  ... OptM3 with GC (2021)
Angular Grid (max. ang.)         AngularGrid ... 3 (Lebedev-194)
Angular grid pruning method      GridPruning ... 4 (adaptive)
Weight generation scheme         WeightScheme... mBecke (2022)
Basis function cutoff            BFCut       ... 1.0000e-11
Integration weight cutoff        WCut        ... 1.0000e-14
Partially contracted basis set               ... on
Rotationally invariant grid construction     ... off
Angular grids for H and He will be reduced by one unit
Diffuse basis detected: some atoms will have their outermost
                        angular grid increased by 1.

Total number of grid points                  ...   102536
Total number of batches                      ...      815
Average number of points per batch           ...      125
Average number of grid points per atom       ...     3418
UseSFitting                                  ... on
Initializing property integral containers    ... done (  0.0 sec)

SHARK setup successfully completed in   3.3 seconds

Maximum memory used throughout the entire STARTUP-calculation: 78.7 MB


           ************************************************************
           *        Program running with 32 parallel MPI-processes    *
           *              working on a common directory               *
           ************************************************************
-------------------------------------------------------------------------------
                                 ORCA GUESS
                   Start orbitals & Density for SCF / CASSCF
-------------------------------------------------------------------------------

------------
SCF SETTINGS
------------
Hamiltonian:
 Density Functional     Method          .... DFT(GTOs)
  Functional kind                       .... Exchange-Correlation
  Functional name                       .... wB97M-V exchange-correlation functional
  Functional family                     .... Hybrid MGGA
  Functional refs                              
    [ 0] N. Mardirossian and M. Head-Gordon.,  J. Chem. Phys. 144, 214110 (2016), doi: 10.1063/1.4952647
  Fraction of HF Exchange (short range) .... 0.1500
  Fraction of HF Exchange (long range)  .... 1.0000
  Range separation parameter mu         .... 0.3000
  Functional external parameters        .... 17
    Parameter  0 _cx00      =  8.500000e-01 : u^00 coefficient for exchange
    Parameter  1 _cx01      =  1.007000e+00 : u^01 coefficient for exchange
    Parameter  2 _cx10      =  2.590000e-01 : u^10 coefficient for exchange
    Parameter  3 _css00     =  4.430000e-01 : u^00 coefficient for same-spin correlation
    Parameter  4 _css04     = -1.437000e+00 : u^04 coefficient for same-spin correlation
    Parameter  5 _css10     = -4.535000e+00 : u^10 coefficient for same-spin correlation
    Parameter  6 _css20     = -3.390000e+00 : u^20 coefficient for same-spin correlation
    Parameter  7 _css43     =  4.278000e+00 : u^43 coefficient for same-spin correlation
    Parameter  8 _cos00     =  1.000000e+00 : u^00 coefficient for opposite-spin correlation
    Parameter  9 _cos10     =  1.358000e+00 : u^10 coefficient for opposite-spin correlation
    Parameter 10 _cos20     =  2.924000e+00 : u^20 coefficient for opposite-spin correlation
    Parameter 11 _cos21     = -8.812000e+00 : u^21 coefficient for opposite-spin correlation
    Parameter 12 _cos60     = -1.390000e+00 : u^60 coefficient for opposite-spin correlation
    Parameter 13 _cos61     =  9.142000e+00 : u^61 coefficient for opposite-spin correlation
    Parameter 14 _alpha     =  1.000000e+00 : fraction of HF exchange
    Parameter 15 _beta      = -8.500000e-01 : fraction of short-range exchange
    Parameter 16 _omega     =  3.000000e-01 : range-separation constant
 Long-range corrected/Screened/Range-Separated Hybrid DFT is turned on
   Amount of maximum screened exact exchange              ....  0.850000
   Range separation parameter mu (erf(mu*r12)/r12)        ....  0.300000
 RI-approximation to the Coulomb term is turned on
   Number of AuxJ basis functions       .... 1014
   RIJ-COSX (HFX calculated with COS-X)).... on


General Settings:
 Integral files         IntName         .... orca
 Hartree-Fock type      HFTyp           .... RHF
 Total Charge           Charge          ....    0
 Multiplicity           Mult            ....    1
 Number of Electrons    NEL             ....  132
 Basis Dimension        Dim             ....  882
 Nuclear Repulsion      ENuc            ....   1349.2013241961 Eh

Convergence Acceleration:
 AO-DIIS                CNVDIIS         .... on
   Start iteration      DIISMaxIt       ....    12
   Startup error        DIISStart       ....  0.200000
   # of expansion vecs  DIISMaxEq       ....     5
   Bias factor          DIISBfac        ....   1.050
   Max. coefficient     DIISMaxC        ....  10.000
 MO-DIIS                CNVKDIIS        .... off
 Trust-Rad. Augm. Hess. CNVTRAH         .... auto
   Auto Start mean grad. ratio tolernc. ....  1.125000
   Auto Start start iteration           ....    50
   Auto Start num. interpolation iter.  ....    10
   Max. Number of Micro iterations      ....    24
   Max. Number of Macro iterations      .... Maxiter - #DIIS iter
   Number of Davidson start vectors     ....     2
   Converg. threshold    (grad. norm)   ....   1.000e-05
   Grad. Scal. Fac. for Micro threshold ....   0.100
   Minimum threshold for Micro iter.    ....   1.000e-02
   NR start threshold (gradient norm)   ....   1.000e-04
   Initial trust radius                 ....   0.400
   Minimum AH scaling param. (alpha)    ....   1.000
   Maximum AH scaling param. (alpha)    .... 1000.000
   Quad. conv. algorithm                .... NR
   White noise on init. David. guess    .... on
   Maximum white noise                  ....   0.010
   Pseudo random numbers                .... off
   Inactive MOs                         .... canonical
   Orbital update algorithm             .... Taylor
   Preconditioner                       .... Diag
   Full preconditioner red. dimension   ....   250
 SOSCF                  CNVSOSCF        .... on
   Start iteration      SOSCFMaxIt      ....   150
   Startup grad/error   SOSCFStart      ....  0.003300
   Hessian update       SOSCFHessUp     .... L-BFGS
 Level Shifting         CNVShift        .... on
   Level shift para.    LevelShift      ....    0.2500
   Turn off err/grad.   ShiftErr        ....    0.0010
 Zerner damping         CNVZerner       .... off
 Static damping         CNVDamp         .... on
   Fraction old density DampFac         ....    0.7000
   Max. Damping (<1)    DampMax         ....    0.9800
   Min. Damping (>=0)   DampMin         ....    0.0000
   Turn off err/grad.   DampErr         ....    0.1000

SCF Procedure:
 Maximum # iterations   MaxIter         ....   125
 SCF integral mode      SCFMode         .... Direct
   Integral package                     .... SHARK and LIBINT hybrid scheme
 Reset frequency        DirectResetFreq ....    20
 Integral Threshold     Thresh          ....  2.500e-11 Eh
 Primitive CutOff       TCut            ....  2.500e-12 Eh

Convergence Tolerance:
 Convergence Check Mode ConvCheckMode   .... Total+1el-Energy
 Convergence forced     ConvForced      .... 0
 Energy Change          TolE            ....  1.000e-08 Eh
 1-El. energy change                    ....  1.000e-05 Eh
 Orbital Gradient       TolG            ....  1.000e-05
 Orbital Rotation angle TolX            ....  1.000e-05
 DIIS Error             TolErr          ....  5.000e-07

------------------------------
INITIAL GUESS: MODEL POTENTIAL
------------------------------
Loading Hartree-Fock densities                     ... done
Calculating cut-offs                               ... done
Initializing the effective Hamiltonian             ... done
Setting up the integral package (SHARK)            ... done
Starting the Coulomb interaction                   ... done (   0.2 sec)
Making the grid                                    ... done (   0.3 sec)
Mapping shells                                     ... done
Starting the XC term evaluation                    ... done (   0.2 sec)
  promolecular density results
     # of electrons  =    131.992028995
     EX              =   -113.302739678
     EC              =     -4.439013288
     EX+EC           =   -117.741752966
Transforming the Hamiltonian                       ... done (   0.1 sec)
Diagonalizing the Hamiltonian                      ... done (   0.2 sec)
Back transforming the eigenvectors                 ... done (   0.1 sec)
Now organizing SCF variables                       ... done
                      ------------------
                      INITIAL GUESS DONE (   1.0 sec)
                      ------------------
             **** ENERGY FILE WAS UPDATED (orca.en.tmp) ****
Finished Guess after   1.7 sec
Maximum memory used throughout the entire GUESS-calculation: 70.9 MB


           ************************************************************
           *        Program running with 32 parallel MPI-processes    *
           *              working on a common directory               *
           ************************************************************

-------------------------------------------------------------------------------------------
                                      ORCA LEAN-SCF
                              memory conserving SCF solver
-------------------------------------------------------------------------------------------

----------------------------------------D-I-I-S--------------------------------------------
Iteration    Energy (Eh)           Delta-E    RMSDP     MaxDP     DIISErr   Damp  Time(sec)
-------------------------------------------------------------------------------------------
               ***  Starting incremental Fock matrix formation  ***
    1    -907.8828139283241399     0.00e+00  2.07e-03  1.72e-01  2.91e-01  0.700  10.9
    2    -908.2066949926729649    -3.24e-01  1.60e-03  1.00e-01  1.37e-01  0.700   6.2
                               ***Turning on AO-DIIS***
    3    -908.3354787766788832    -1.29e-01  1.13e-03  9.06e-02  5.54e-02  0.700   5.8
    4    -908.4164114995128330    -8.09e-02  2.73e-03  2.77e-01  3.27e-02  0.000   5.6
    5    -908.6013545387772865    -1.85e-01  3.80e-04  3.18e-02  7.78e-03  0.000   5.8
    6    -908.6028090482900552    -1.45e-03  2.12e-04  1.80e-02  4.53e-03  0.000   5.3
                              *** Initializing SOSCF ***
---------------------------------------S-O-S-C-F--------------------------------------
Iteration    Energy (Eh)           Delta-E    RMSDP     MaxDP     MaxGrad    Time(sec)
--------------------------------------------------------------------------------------
    7    -908.6035659887661495    -7.57e-04  1.43e-04  1.41e-02  3.02e-03     5.6
               *** Restarting incremental Fock matrix formation ***
    8    -908.6039738870813380    -4.08e-04  3.28e-04  2.87e-02  3.50e-03    10.7
    9    -908.6042657161497118    -2.92e-04  3.41e-04  2.69e-02  1.78e-03     8.9
   10    -908.6046186874891646    -3.53e-04  1.94e-04  1.67e-02  1.57e-03     8.9
   11    -908.6045739692003735     4.47e-05  1.18e-04  1.04e-02  2.97e-03     8.7
   12    -908.6046714294866433    -9.75e-05  2.06e-05  1.73e-03  1.63e-04     8.3
   13    -908.6046733353505260    -1.91e-06  1.53e-05  1.78e-03  8.90e-05     7.5
   14    -908.6046743655015234    -1.03e-06  1.32e-05  2.10e-03  2.29e-05     7.3
   15    -908.6046744041868806    -3.87e-08  8.53e-06  1.27e-03  9.43e-06     6.8
   16    -908.6046744178543122    -1.37e-08  1.29e-05  2.02e-03  5.29e-06     6.3
   17    -908.6046744291620598    -1.13e-08  1.03e-05  1.06e-03  3.78e-06     6.4
   18    -908.6046744508539632    -2.17e-08  1.30e-05  2.07e-03  1.07e-06     6.2
                  *** Gradient check signals convergence ***

               *****************************************************
               *                     SUCCESS                       *
               *           SCF CONVERGED AFTER  18 CYCLES          *
               *****************************************************

Recomputing exchange energy using gridx3       ... done (   17.349 sec)
Old exchange energy                            :    -34.880429372 Eh
New exchange energy                            :    -34.880425043 Eh
Exchange energy change after final integration :      0.000004329 Eh
Total energy after final integration           :   -908.604670122 Eh
             **** ENERGY FILE WAS UPDATED (orca.en.tmp) ****

----------------
TOTAL SCF ENERGY
----------------

Total Energy       :       -908.60467012198103 Eh          -24724.39004 eV

Components:
Nuclear Repulsion  :       1349.20132419607035 Eh           36713.63452 eV
Electronic Energy  :      -2257.80599864692431 Eh          -61438.02467 eV
One Electron Energy:      -3915.78791908273888 Eh         -106554.00638 eV
Two Electron Energy:       1657.98192043581480 Eh           45115.98171 eV

Virial components:
Potential Energy   :      -1812.68703608592705 Eh          -49325.72192 eV
Kinetic Energy     :        904.08236596394613 Eh           24601.33189 eV
Virial Ratio       :          2.00500209309272

DFT components:
N(Alpha)           :       65.999915255090 electrons
N(Beta)            :       65.999915255090 electrons
N(Total)           :      131.999830510180 electrons
E(XC)              :      -85.887422628828 Eh       

---------------
SCF CONVERGENCE
---------------

  Last Energy change         ...    2.1692e-08  Tolerance :   1.0000e-08
  Last MAX-Density change    ...    2.0696e-03  Tolerance :   1.0000e-07
  Last RMS-Density change    ...    1.2979e-05  Tolerance :   5.0000e-09
  Last DIIS Error            ...    3.0150e-03  Tolerance :   5.0000e-07
  Last Orbital Gradient      ...    1.0709e-06  Tolerance :   1.0000e-05
  Last Orbital Rotation      ...    1.2340e-05  Tolerance :   1.0000e-05


----------------
ORBITAL ENERGIES
----------------

  NO   OCC          E(Eh)            E(eV) 
   0   2.0000     -19.337905      -526.2111 
   1   2.0000     -19.336332      -526.1683 
   2   2.0000     -19.328514      -525.9556 
   3   2.0000     -19.323784      -525.8269 
   4   2.0000     -14.582564      -396.8117 
   5   2.0000     -14.577734      -396.6803 
   6   2.0000     -14.565297      -396.3419 
   7   2.0000     -14.564177      -396.3114 
   8   2.0000     -10.527744      -286.4745 
   9   2.0000     -10.515058      -286.1293 
  10   2.0000     -10.492793      -285.5234 
  11   2.0000     -10.482588      -285.2457 
  12   2.0000     -10.481682      -285.2211 
  13   2.0000     -10.463571      -284.7282 
  14   2.0000     -10.455056      -284.4965 
  15   2.0000     -10.424731      -283.6713 
  16   2.0000     -10.386417      -282.6288 
  17   2.0000     -10.364143      -282.0227 
  18   2.0000      -1.225563       -33.3493 
  19   2.0000      -1.208018       -32.8718 
  20   2.0000      -1.198290       -32.6071 
  21   2.0000      -1.184302       -32.2265 
  22   2.0000      -1.105884       -30.0926 
  23   2.0000      -1.089980       -29.6599 
  24   2.0000      -1.072564       -29.1859 
  25   2.0000      -1.051303       -28.6074 
  26   2.0000      -0.939787       -25.5729 
  27   2.0000      -0.930397       -25.3174 
  28   2.0000      -0.865337       -23.5470 
  29   2.0000      -0.824885       -22.4463 
  30   2.0000      -0.806252       -21.9392 
  31   2.0000      -0.792048       -21.5527 
  32   2.0000      -0.788407       -21.4536 
  33   2.0000      -0.771788       -21.0014 
  34   2.0000      -0.695197       -18.9173 
  35   2.0000      -0.680001       -18.5038 
  36   2.0000      -0.666832       -18.1454 
  37   2.0000      -0.657607       -17.8944 
  38   2.0000      -0.636972       -17.3329 
  39   2.0000      -0.624656       -16.9978 
  40   2.0000      -0.618546       -16.8315 
  41   2.0000      -0.598482       -16.2855 
  42   2.0000      -0.597839       -16.2680 
  43   2.0000      -0.584183       -15.8964 
  44   2.0000      -0.569342       -15.4926 
  45   2.0000      -0.567305       -15.4371 
  46   2.0000      -0.558848       -15.2070 
  47   2.0000      -0.552005       -15.0208 
  48   2.0000      -0.549677       -14.9575 
  49   2.0000      -0.546055       -14.8589 
  50   2.0000      -0.543554       -14.7909 
  51   2.0000      -0.530675       -14.4404 
  52   2.0000      -0.512925       -13.9574 
  53   2.0000      -0.497679       -13.5425 
  54   2.0000      -0.487581       -13.2678 
  55   2.0000      -0.484075       -13.1724 
  56   2.0000      -0.481468       -13.1014 
  57   2.0000      -0.425343       -11.5742 
  58   2.0000      -0.418377       -11.3846 
  59   2.0000      -0.408732       -11.1222 
  60   2.0000      -0.403819       -10.9885 
  61   2.0000      -0.395198       -10.7539 
  62   2.0000      -0.390962       -10.6386 
  63   2.0000      -0.384044       -10.4504 
  64   2.0000      -0.370293       -10.0762 
  65   2.0000      -0.282160        -7.6780 
  66   0.0000      -0.102887        -2.7997 
  67   0.0000       0.009599         0.2612 
  68   0.0000       0.025140         0.6841 
  69   0.0000       0.031413         0.8548 
  70   0.0000       0.033999         0.9252 
  71   0.0000       0.046040         1.2528 
  72   0.0000       0.053485         1.4554 
  73   0.0000       0.055720         1.5162 
  74   0.0000       0.061311         1.6684 
  75   0.0000       0.062310         1.6955 
  76   0.0000       0.064862         1.7650 
*Only the first 10 virtual orbitals were printed.

                    ********************************
                    * MULLIKEN POPULATION ANALYSIS *
                    ********************************

-----------------------
MULLIKEN ATOMIC CHARGES
-----------------------
   0 O :   -0.626881
   1 O :   -0.630913
   2 O :   -0.627388
   3 O :   -0.631785
   4 N :   -0.134566
   5 N :   -0.216849
   6 N :   -0.047818
   7 N :    0.002700
   8 C :    0.579016
   9 C :    0.388596
  10 C :   -0.010917
  11 C :   -0.107635
  12 C :   -1.623611
  13 C :   -1.414539
  14 C :    0.380810
  15 C :    0.518701
  16 C :    0.405465
  17 C :    0.501093
  18 H :    0.447463
  19 H :    0.502559
  20 H :    0.347012
  21 H :    0.344120
  22 H :    0.388614
  23 H :    0.334772
  24 H :    0.337069
  25 H :    0.319437
  26 H :    0.093720
  27 H :    0.052602
  28 H :    0.075788
  29 H :    0.053365
Sum of atomic charges:   -0.0000000

--------------------------------
MULLIKEN REDUCED ORBITAL CHARGES
--------------------------------
  0 O s       :     4.064105  s :     4.064105
      pz      :     1.515891  p :     4.528101
      px      :     1.349708
      py      :     1.662502
      dz2     :     0.004634  d :     0.032814
      dxz     :     0.007515
      dyz     :     0.004774
      dx2y2   :     0.009203
      dxy     :     0.006687
      f0      :     0.000149  f :     0.001861
      f+1     :     0.000278
      f-1     :     0.000104
      f+2     :     0.000171
      f-2     :     0.000312
      f+3     :     0.000452
      f-3     :     0.000395

  1 O s       :     4.073872  s :     4.073872
      pz      :     1.382871  p :     4.522464
      px      :     1.583163
      py      :     1.556430
      dz2     :     0.008754  d :     0.032667
      dxz     :     0.010147
      dyz     :     0.010992
      dx2y2   :     0.001777
      dxy     :     0.000996
      f0      :     0.000477  f :     0.001910
      f+1     :     0.000496
      f-1     :     0.000393
      f+2     :     0.000286
      f-2     :     0.000231
      f+3     :     0.000014
      f-3     :     0.000014

  2 O s       :     4.064640  s :     4.064640
      pz      :     1.503060  p :     4.529481
      px      :     1.719039
      py      :     1.307382
      dz2     :     0.005419  d :     0.031304
      dxz     :     0.002275
      dyz     :     0.009723
      dx2y2   :     0.008503
      dxy     :     0.005384
      f0      :     0.000136  f :     0.001962
      f+1     :     0.000037
      f-1     :     0.000459
      f+2     :     0.000349
      f-2     :     0.000251
      f+3     :     0.000349
      f-3     :     0.000382

  3 O s       :     4.071076  s :     4.071076
      pz      :     1.790969  p :     4.528767
      px      :     1.334461
      py      :     1.403337
      dz2     :     0.003478  d :     0.030018
      dxz     :     0.002299
      dyz     :     0.000235
      dx2y2   :     0.014377
      dxy     :     0.009629
      f0      :     0.000223  f :     0.001923
      f+1     :     0.000234
      f-1     :     0.000147
      f+2     :     0.000050
      f-2     :     0.000280
      f+3     :     0.000571
      f-3     :     0.000418

  4 N s       :     3.535368  s :     3.535368
      pz      :     1.316662  p :     3.547110
      px      :     1.093983
      py      :     1.136465
      dz2     :     0.012710  d :     0.048568
      dxz     :     0.009814
      dyz     :     0.005207
      dx2y2   :     0.013809
      dxy     :     0.007028
      f0      :     0.000417  f :     0.003520
      f+1     :     0.000391
      f-1     :     0.000653
      f+2     :     0.000716
      f-2     :     0.000680
      f+3     :     0.000385
      f-3     :     0.000278

  5 N s       :     3.564046  s :     3.564046
      pz      :     0.986298  p :     3.575789
      px      :     1.065260
      py      :     1.524232
      dz2     :     0.016215  d :     0.073611
      dxz     :     0.018224
      dyz     :     0.017602
      dx2y2   :     0.012440
      dxy     :     0.009130
      f0      :     0.000501  f :     0.003402
      f+1     :     0.000488
      f-1     :     0.000288
      f+2     :     0.000330
      f-2     :     0.000558
      f+3     :     0.000567
      f-3     :     0.000669

  6 N s       :     3.511299  s :     3.511299
      pz      :     1.371307  p :     3.477142
      px      :     1.066041
      py      :     1.039794
      dz2     :     0.001458  d :     0.056052
      dxz     :     0.007256
      dyz     :     0.016662
      dx2y2   :     0.030541
      dxy     :     0.000135
      f0      :     0.000414  f :     0.003325
      f+1     :     0.000346
      f-1     :     0.000464
      f+2     :     0.000380
      f-2     :     0.000400
      f+3     :     0.000661
      f-3     :     0.000660

  7 N s       :     3.463846  s :     3.463846
      pz      :     0.966001  p :     3.468698
      px      :     1.201870
      py      :     1.300827
      dz2     :     0.020320  d :     0.061059
      dxz     :     0.012126
      dyz     :     0.000809
      dx2y2   :     0.010853
      dxy     :     0.016950
      f0      :     0.000594  f :     0.003698
      f+1     :     0.000373
      f-1     :     0.000447
      f+2     :     0.000230
      f-2     :     0.000726
      f+3     :     0.000682
      f-3     :     0.000646

  8 C s       :     3.181875  s :     3.181875
      pz      :     0.729677  p :     2.296437
      px      :     0.788173
      py      :     0.778588
      dz2     :     0.014206  d :    -0.064269
      dxz     :    -0.013218
      dyz     :    -0.007097
      dx2y2   :    -0.028234
      dxy     :    -0.029927
      f0      :     0.000626  f :     0.006941
      f+1     :     0.001043
      f-1     :     0.000807
      f+2     :     0.001230
      f-2     :     0.001365
      f+3     :     0.001025
      f-3     :     0.000846

  9 C s       :     3.295603  s :     3.295603
      pz      :     0.788872  p :     2.381559
      px      :     0.878489
      py      :     0.714198
      dz2     :    -0.047502  d :    -0.071925
      dxz     :    -0.005353
      dyz     :    -0.018243
      dx2y2   :    -0.018996
      dxy     :     0.018170
      f0      :     0.001233  f :     0.006167
      f+1     :     0.000658
      f-1     :     0.001119
      f+2     :     0.000921
      f-2     :     0.000764
      f+3     :     0.000604
      f-3     :     0.000868

 10 C s       :     3.329819  s :     3.329819
      pz      :     0.861733  p :     2.509514
      px      :     0.953451
      py      :     0.694330
      dz2     :     0.086155  d :     0.163103
      dxz     :     0.034040
      dyz     :    -0.007064
      dx2y2   :     0.004574
      dxy     :     0.045399
      f0      :     0.000841  f :     0.008480
      f+1     :     0.000594
      f-1     :     0.001879
      f+2     :     0.001196
      f-2     :     0.001432
      f+3     :     0.001038
      f-3     :     0.001499

 11 C s       :     3.404497  s :     3.404497
      pz      :     1.017108  p :     2.602182
      px      :     0.680664
      py      :     0.904410
      dz2     :     0.023499  d :     0.093944
      dxz     :     0.014598
      dyz     :     0.024838
      dx2y2   :    -0.031913
      dxy     :     0.062922
      f0      :     0.000789  f :     0.007012
      f+1     :     0.000657
      f-1     :     0.000900
      f+2     :     0.000577
      f-2     :     0.000891
      f+3     :     0.002031
      f-3     :     0.001166

 12 C s       :     3.811224  s :     3.811224
      pz      :     1.214553  p :     3.689117
      px      :     1.218203
      py      :     1.256361
      dz2     :    -0.010001  d :     0.120491
      dxz     :     0.050017
      dyz     :     0.039636
      dx2y2   :    -0.005407
      dxy     :     0.046248
      f0      :     0.000124  f :     0.002778
      f+1     :     0.000330
      f-1     :     0.000343
      f+2     :     0.000534
      f-2     :     0.001053
      f+3     :     0.000177
      f-3     :     0.000217

 13 C s       :     3.734168  s :     3.734168
      pz      :     1.355614  p :     3.546035
      px      :     1.252050
      py      :     0.938370
      dz2     :     0.048884  d :     0.131657
      dxz     :     0.026008
      dyz     :     0.029405
      dx2y2   :     0.035791
      dxy     :    -0.008431
      f0      :     0.000273  f :     0.002679
      f+1     :     0.000190
      f-1     :     0.000494
      f+2     :     0.000412
      f-2     :     0.000037
      f+3     :     0.000664
      f-3     :     0.000609

 14 C s       :     3.377756  s :     3.377756
      pz      :     0.678365  p :     1.975911
      px      :     0.663547
      py      :     0.634000
      dz2     :     0.034866  d :     0.244826
      dxz     :     0.041376
      dyz     :     0.052212
      dx2y2   :     0.060216
      dxy     :     0.056155
      f0      :     0.001663  f :     0.020698
      f+1     :     0.002753
      f-1     :     0.002012
      f+2     :     0.003210
      f-2     :     0.002554
      f+3     :     0.005230
      f-3     :     0.003276

 15 C s       :     3.283999  s :     3.283999
      pz      :     0.688025  p :     1.952903
      px      :     0.645273
      py      :     0.619606
      dz2     :     0.060379  d :     0.223133
      dxz     :     0.047519
      dyz     :     0.032811
      dx2y2   :     0.061324
      dxy     :     0.021099
      f0      :     0.005527  f :     0.021264
      f+1     :     0.003228
      f-1     :     0.003344
      f+2     :     0.001970
      f-2     :     0.003186
      f+3     :     0.002473
      f-3     :     0.001537

 16 C s       :     3.276712  s :     3.276712
      pz      :     0.700239  p :     2.064481
      px      :     0.712918
      py      :     0.651325
      dz2     :     0.069067  d :     0.229407
      dxz     :     0.036951
      dyz     :     0.036556
      dx2y2   :     0.011901
      dxy     :     0.074932
      f0      :     0.001874  f :     0.023935
      f+1     :     0.002344
      f-1     :     0.003968
      f+2     :     0.003507
      f-2     :     0.003539
      f+3     :     0.005122
      f-3     :     0.003582

 17 C s       :     3.214338  s :     3.214338
      pz      :     0.719394  p :     2.036002
      px      :     0.617828
      py      :     0.698779
      dz2     :     0.005366  d :     0.223959
      dxz     :     0.073233
      dyz     :     0.084979
      dx2y2   :     0.060278
      dxy     :     0.000103
      f0      :     0.005123  f :     0.024609
      f+1     :     0.003064
      f-1     :     0.002593
      f+2     :     0.002899
      f-2     :     0.004870
      f+3     :     0.003847
      f-3     :     0.002213

 18 H s       :     0.495808  s :     0.495808
      pz      :     0.017021  p :     0.054059
      px      :     0.032075
      py      :     0.004963
      dz2     :     0.000738  d :     0.002671
      dxz     :     0.000860
      dyz     :     0.000909
      dx2y2   :     0.000045
      dxy     :     0.000119

 19 H s       :     0.470843  s :     0.470843
      pz      :     0.008182  p :     0.023941
      px      :     0.004974
      py      :     0.010784
      dz2     :     0.000833  d :     0.002658
      dxz     :     0.000627
      dyz     :     0.000564
      dx2y2   :     0.000190
      dxy     :     0.000443

 20 H s       :     0.582914  s :     0.582914
      pz      :     0.005834  p :     0.067779
      px      :     0.027581
      py      :     0.034363
      dz2     :     0.000414  d :     0.002296
      dxz     :     0.000370
      dyz     :     0.000533
      dx2y2   :     0.000503
      dxy     :     0.000475

 21 H s       :     0.594726  s :     0.594726
      pz      :     0.027319  p :     0.058909
      px      :     0.006311
      py      :     0.025280
      dz2     :     0.000547  d :     0.002244
      dxz     :     0.000467
      dyz     :     0.000441
      dx2y2   :     0.000416
      dxy     :     0.000373

 22 H s       :     0.545468  s :     0.545468
      pz      :     0.025130  p :     0.063729
      px      :     0.026711
      py      :     0.011888
      dz2     :     0.000381  d :     0.002188
      dxz     :     0.000411
      dyz     :     0.000391
      dx2y2   :     0.000559
      dxy     :     0.000447

 23 H s       :     0.607279  s :     0.607279
      pz      :     0.024685  p :     0.055791
      px      :     0.023658
      py      :     0.007448
      dz2     :     0.000156  d :     0.002157
      dxz     :     0.000730
      dyz     :     0.000018
      dx2y2   :     0.000485
      dxy     :     0.000768

 24 H s       :     0.601881  s :     0.601881
      pz      :     0.020689  p :     0.058813
      px      :     0.021712
      py      :     0.016412
      dz2     :     0.000712  d :     0.002237
      dxz     :     0.000437
      dyz     :     0.000451
      dx2y2   :     0.000361
      dxy     :     0.000277

 25 H s       :     0.630738  s :     0.630738
      pz      :     0.024177  p :     0.047576
      px      :     0.012246
      py      :     0.011153
      dz2     :     0.000687  d :     0.002249
      dxz     :     0.000524
      dyz     :     0.000591
      dx2y2   :     0.000281
      dxy     :     0.000166

 26 H s       :     0.827829  s :     0.827829
      pz      :     0.016818  p :     0.072395
      px      :     0.039134
      py      :     0.016444
      dz2     :     0.000649  d :     0.006055
      dxz     :     0.001201
      dyz     :     0.000704
      dx2y2   :     0.001797
      dxy     :     0.001705

 27 H s       :     0.868883  s :     0.868883
      pz      :     0.022930  p :     0.072412
      px      :     0.018575
      py      :     0.030907
      dz2     :     0.001554  d :     0.006103
      dxz     :     0.001627
      dyz     :     0.001661
      dx2y2   :     0.000729
      dxy     :     0.000534

 28 H s       :     0.855847  s :     0.855847
      pz      :     0.028545  p :     0.062286
      px      :     0.019661
      py      :     0.014080
      dz2     :     0.001653  d :     0.006080
      dxz     :     0.001313
      dyz     :     0.000997
      dx2y2   :     0.000916
      dxy     :     0.001200

 29 H s       :     0.875437  s :     0.875437
      pz      :     0.020053  p :     0.065116
      px      :     0.019350
      py      :     0.025714
      dz2     :     0.001593  d :     0.006083
      dxz     :     0.001725
      dyz     :     0.001575
      dx2y2   :     0.000718
      dxy     :     0.000472



                     *******************************
                     * LOEWDIN POPULATION ANALYSIS *
                     *******************************

----------------------
LOEWDIN ATOMIC CHARGES
----------------------
   0 O :    0.075332
   1 O :    0.088938
   2 O :    0.076284
   3 O :    0.080640
   4 N :    0.217093
   5 N :    0.224612
   6 N :    0.315129
   7 N :    0.322737
   8 C :   -0.000684
   9 C :    0.081862
  10 C :   -0.032630
  11 C :    0.053239
  12 C :    0.135198
  13 C :    0.156710
  14 C :   -0.422885
  15 C :   -0.463615
  16 C :   -0.421006
  17 C :   -0.452189
  18 H :    0.023152
  19 H :    0.003169
  20 H :    0.000986
  21 H :   -0.012822
  22 H :    0.011757
  23 H :    0.016458
  24 H :   -0.015364
  25 H :    0.009622
  26 H :   -0.017514
  27 H :   -0.034122
  28 H :   -0.015268
  29 H :   -0.004818

[...]
      dx2y2   :     0.286770
      dxy     :     0.227331
      f0      :     0.034014  f :     0.154225
      f+1     :     0.016986
      f-1     :     0.018060
      f+2     :     0.017384
      f-2     :     0.029878
      f+3     :     0.017723
      f-3     :     0.020181

 18 H s       :     0.669409  s :     0.669409
      pz      :     0.127682  p :     0.268313
      px      :     0.074771
      py      :     0.065859
      dz2     :     0.012467  d :     0.031443
      dxz     :     0.009735
      dyz     :     0.009028
      dx2y2   :     0.000076
      dxy     :     0.000137

 19 H s       :     0.666436  s :     0.666436
      pz      :     0.102472  p :     0.260383
      px      :     0.065674
      py      :     0.092237
      dz2     :     0.009370  d :     0.031667
      dxz     :     0.005159
      dyz     :     0.009385
      dx2y2   :     0.003450
      dxy     :     0.004302

 20 H s       :     0.675298  s :     0.675298
      pz      :     0.101908  p :     0.298145
      px      :     0.118411
      py      :     0.077826
      dz2     :     0.005054  d :     0.031100
      dxz     :     0.008295
      dyz     :     0.002172
      dx2y2   :     0.007266
      dxy     :     0.008314

 21 H s       :     0.685014  s :     0.685014
      pz      :     0.076123  p :     0.280712
      px      :     0.089310
      py      :     0.115279
      dz2     :     0.002792  d :     0.030122
      dxz     :     0.002495
      dyz     :     0.007722
      dx2y2   :     0.009118
      dxy     :     0.007995

 22 H s       :     0.682623  s :     0.682623
      pz      :     0.116148  p :     0.277403
      px      :     0.077063
      py      :     0.084192
      dz2     :     0.009897  d :     0.030165
      dxz     :     0.008192
      dyz     :     0.008329
      dx2y2   :     0.001670
      dxy     :     0.002075

 23 H s       :     0.678299  s :     0.678299
      pz      :     0.080971  p :     0.272997
      px      :     0.119606
      py      :     0.072420
      dz2     :     0.004057  d :     0.029996
      dxz     :     0.008406
      dyz     :     0.001603
      dx2y2   :     0.007984
      dxy     :     0.007947

 24 H s       :     0.687640  s :     0.687640
      pz      :     0.100590  p :     0.281816
      px      :     0.105056
      py      :     0.076171
      dz2     :     0.007681  d :     0.030407
      dxz     :     0.006853
      dyz     :     0.004800
      dx2y2   :     0.005974
      dxy     :     0.005099

 25 H s       :     0.675032  s :     0.675032
      pz      :     0.133788  p :     0.293118
      px      :     0.077137
      py      :     0.082192
      dz2     :     0.010053  d :     0.031003
      dxz     :     0.008589
      dyz     :     0.009171
      dx2y2   :     0.001915
      dxy     :     0.001275

 26 H s       :     0.605190  s :     0.605190
      pz      :     0.103257  p :     0.361243
      px      :     0.141455
      py      :     0.116532
      dz2     :     0.010463  d :     0.062971
      dxz     :     0.009675
      dyz     :     0.012066
      dx2y2   :     0.017104
      dxy     :     0.013663

 27 H s       :     0.615030  s :     0.615030
      pz      :     0.128103  p :     0.350052
      px      :     0.112479
      py      :     0.109470
      dz2     :     0.016184  d :     0.062413
      dxz     :     0.016107
      dyz     :     0.015612
      dx2y2   :     0.008486
      dxy     :     0.006023

 28 H s       :     0.605497  s :     0.605497
      pz      :     0.136694  p :     0.344721
      px      :     0.105894
      py      :     0.102133
      dz2     :     0.021567  d :     0.061922
      dxz     :     0.015034
      dyz     :     0.014641
      dx2y2   :     0.004423
      dxy     :     0.006258

 29 H s       :     0.601100  s :     0.601100
      pz      :     0.133782  p :     0.342131
      px      :     0.100599
      py      :     0.107750
      dz2     :     0.017018  d :     0.061662
      dxz     :     0.015462
      dyz     :     0.017073
      dx2y2   :     0.005972
      dxy     :     0.006138



                      *****************************
                      * MAYER POPULATION ANALYSIS *
                      *****************************

  NA   - Mulliken gross atomic population
  ZA   - Total nuclear charge
  QA   - Mulliken gross atomic charge
  VA   - Mayer's total valence
  BVA  - Mayer's bonded valence
  FA   - Mayer's free valence

  ATOM       NA         ZA         QA         VA         BVA        FA
  0 O      8.6749     8.0000    -0.6749     1.5238     1.5238     0.0000
  1 O      8.6667     8.0000    -0.6667     1.5218     1.5218    -0.0000
  2 O      8.6528     8.0000    -0.6528     1.5350     1.5350     0.0000
  3 O      8.6265     8.0000    -0.6265     1.5537     1.5537    -0.0000
  4 N      7.3036     7.0000    -0.3036     2.8389     2.8389     0.0000
  5 N      7.3262     7.0000    -0.3262     2.8255     2.8255    -0.0000
  6 N      6.9155     7.0000     0.0845     3.1073     3.1073     0.0000
  7 N      6.9448     7.0000     0.0552     3.2221     3.2221    -0.0000
  8 C      5.8184     6.0000     0.1816     1.8696     1.8696     0.0000
  9 C      5.8099     6.0000     0.1901     2.2873     2.2873    -0.0000
 10 C      5.9305     6.0000     0.0695     1.6835     1.6835     0.0000
 11 C      5.2098     6.0000     0.7902     0.7735     0.7735     0.0000
 12 C      7.3385     6.0000    -1.3385     3.3210     3.3210     0.0000
 13 C      7.4678     6.0000    -1.4678     3.1605     3.1605     0.0000
 14 C      5.5854     6.0000     0.4146     3.2076     3.2076     0.0000
 15 C      5.6709     6.0000     0.3291     3.0283     3.0283    -0.0000
 16 C      5.6206     6.0000     0.3794     3.4659     3.4659    -0.0000
 17 C      5.6521     6.0000     0.3479     3.5688     3.5688    -0.0000
 18 H      0.3544     1.0000     0.6456     0.4158     0.4158    -0.0000
 19 H      0.5220     1.0000     0.4780     0.7271     0.7271     0.0000
 20 H      0.6867     1.0000     0.3133     1.0075     1.0075    -0.0000
 21 H      0.7366     1.0000     0.2634     1.0014     1.0014     0.0000
 22 H      0.6850     1.0000     0.3150     0.9420     0.9420     0.0000
 23 H      0.6530     1.0000     0.3470     0.9576     0.9576    -0.0000
 24 H      0.7233     1.0000     0.2767     1.0353     1.0353    -0.0000
 25 H      0.6483     1.0000     0.3517     0.9602     0.9602     0.0000
 26 H      0.9269     1.0000     0.0731     1.0344     1.0344     0.0000
 27 H      0.9163     1.0000     0.0837     1.0318     1.0318    -0.0000
 28 H      0.9606     1.0000     0.0394     1.0673     1.0673     0.0000
 29 H      0.9721     1.0000     0.0279     1.0758     1.0758     0.0000

  Mayer bond orders larger than 0.100000
B(  0-O , 14-C ) :   1.3435 B(  1-O , 15-C ) :   1.3840 B(  2-O , 16-C ) :   1.5256 
B(  3-O , 17-C ) :   1.5492 B(  4-N ,  8-C ) :   0.3077 B(  4-N , 10-C ) :   0.2468 
B(  4-N , 16-C ) :   1.0196 B(  4-N , 26-H ) :   1.0934 B(  5-N ,  9-C ) :   0.3728 
B(  5-N , 10-C ) :   0.1166 B(  5-N , 17-C ) :   1.1279 B(  5-N , 27-H ) :   1.0378 
B(  6-N ,  8-C ) :  -0.1210 B(  6-N , 14-C ) :   1.0827 B(  6-N , 16-C ) :   0.9742 
B(  6-N , 28-H ) :   1.0754 B(  7-N , 11-C ) :   0.1205 B(  7-N , 15-C ) :   0.9808 
B(  7-N , 17-C ) :   0.9743 B(  7-N , 29-H ) :   1.0812 B(  8-C ,  9-C ) :   0.4588 
B(  8-C , 12-C ) :   0.5215 B(  8-C , 14-C ) :   0.7731 B(  8-C , 16-C ) :   0.1311 
B(  8-C , 18-H ) :  -0.1676 B(  8-C , 20-H ) :  -0.1198 B(  9-C , 10-C ) :   0.3625 
B(  9-C , 11-C ) :  -0.2381 B(  9-C , 13-C ) :   0.4754 B(  9-C , 14-C ) :   0.1468 
B(  9-C , 15-C ) :   0.8631 B(  9-C , 25-H ) :  -0.1155 B( 10-C , 11-C ) :   0.5594 
B( 10-C , 16-C ) :  -0.1556 B( 10-C , 18-H ) :   0.6667 B( 11-C , 13-C ) :  -0.1310 
B( 11-C , 15-C ) :  -0.2223 B( 11-C , 17-C ) :  -0.1972 B( 11-C , 19-H ) :   0.9133 
B( 12-C , 20-H ) :   1.0069 B( 12-C , 21-H ) :   0.9389 B( 12-C , 22-H ) :   0.9031 
B( 13-C , 23-H ) :   0.8767 B( 13-C , 24-H ) :   0.9803 B( 13-C , 25-H ) :   0.9401 


-------
TIMINGS
-------

Total SCF time: 0 days 0 hours 1 min 34 sec 

Total time                  ....      94.393 sec
Sum of individual times     ....      94.104 sec  ( 99.7%)

SCF preparation             ....       0.797 sec  (  0.8%)
Fock matrix formation       ....      89.884 sec  ( 95.2%)
  Startup                   ....       0.110 sec  (  0.1% of F)
  Split-RI-J                ....       3.195 sec  (  3.6% of F)
  Chain of spheres X        ....      77.241 sec  ( 85.9% of F)
  XC integration            ....       9.011 sec  ( 10.0% of F)
    XC Preparation          ....       0.000 sec  (  0.0% of XC)
    Basis function eval.    ....       0.810 sec  (  9.0% of XC)
    Density eval.           ....       3.065 sec  ( 34.0% of XC)
    XC-Functional eval.     ....       0.069 sec  (  0.8% of XC)
    XC-Potential eval.      ....       3.688 sec  ( 40.9% of XC)
Diagonalization             ....       0.000 sec  (  0.0%)
Density matrix formation    ....       0.307 sec  (  0.3%)
Total Energy calculation    ....       0.140 sec  (  0.1%)
Population analysis         ....       0.317 sec  (  0.3%)
Orbital Transformation      ....       0.369 sec  (  0.4%)
Orbital Orthonormalization  ....       0.000 sec  (  0.0%)
DIIS solution               ....       0.427 sec  (  0.5%)
SOSCF solution              ....       1.862 sec  (  2.0%)
Finished LeanSCF after  94.6 sec

Maximum memory used throughout the entire LEANSCF-calculation: 141.6 MB


-------------------------------------------------------------------------------
                          DFT DISPERSION CORRECTION                            
                                                                               
                              DFTD3 V3.1  Rev 1                                
                          USING Becke-Johnson damping                          
-------------------------------------------------------------------------------
The WB97M functional is recognized
Active option DFTDOPT                   ...         4   

molecular C6(AA) [au] = 9624.076550 


            DFT-D V3
 parameters
 s6 scaling factor         :     1.0000 
 a1 scaling factor         :     0.5660 
 s8 scaling factor         :     0.3908 
 a2 scaling factor         :     3.1280 
 ad hoc parameters k1-k3   :    16.0000     1.3333    -4.0000 

 Edisp/kcal,au: -36.023834998129  -0.057407629119 
 E6   /kcal   : -28.905001131 
 E8   /kcal   :  -7.118833867 
 % E8         :  19.761454791 

-------------------------   ----------------
Dispersion correction           -0.057407629
-------------------------   ----------------


-------------------------   --------------------
FINAL SINGLE POINT ENERGY      -908.761461925235
-------------------------   --------------------

                                *** OPTIMIZATION RUN DONE ***



           ************************************************************
           *        Program running with 32 parallel MPI-processes    *
           *              working on a common directory               *
           ************************************************************

------------------------------------------------------------------------------
                              ORCA PROPERTY CALCULATIONS
------------------------------------------------------------------------------

GBWName                                 ... orca.gbw
Number of atoms                         ...     30
Number of basis functions               ...    882
Max core memory                         ...   1024 MB

Electric properties:
Dipole moment                           ... YES
Quadrupole moment                       ...  NO
Static polarizability (Dipole/Dipole)   ...  NO
Static polarizability (Dipole/Quad.)    ...  NO
Static polarizability (Quad./Quad.)     ...  NO
Static polarizability (Velocity)        ...  NO

Atomic electric properties:
Dipole moment                           ...  NO
Quadrupole moment                       ...  NO
Static polarizability                   ...  NO

Choice of electric origin               ... Center of mass
Position of electric origin             ...     0.000432    -0.047949    -0.029797

General magnetic properties:
Magnetizability                         ...  NO

EPR properties:
g-Tensor (aka g-matrix)                 ...  NO
Zero-Field splitting spin-orbit         ...  NO
Zero-field splitting spin-spin          ...  NO
Hyperfine couplings                     ...  NO (   0 nuclei)
Quadrupole couplings                    ...  NO (   0 nuclei)
Contact density                         ...  NO (   0 nuclei)

NMR properties:
Chemical shifts                         ...  NO (   0 nuclei)
Spin-rotation constants                 ...  NO (   0 nuclei)
Spin-spin couplings                     ...  NO (   0 nuclei,    0 pairs)

Choice of magnetic origin               ... GIAO
Position of magnetic origin             ...     0.000000     0.000000     0.000000

Properties with geometric perturbations:
SCF Hessian                             ...  NO
IR spectrum                             ...  NO
VCD spectrum                            ...  NO
X-ray spectroscopy properties:
SCF XES/XAS/RIXS spectra                ...  NO


-------------
DIPOLE MOMENT
-------------

Method             : SCF
Type of density    : Electron Density
Multiplicity       :   1
Irrep              :   0
Energy             :  -908.7040542961167375 Eh
Relativity type    : 
Basis              : AO
                                X                 Y                 Z
Electronic contribution:     -2.676728472      -9.814152314      -7.427914156
Nuclear contribution   :      2.179589846      11.510325352      10.135395798
                        -----------------------------------------
Total Dipole Moment    :     -0.497138626       1.696173038       2.707481642
                        -----------------------------------------
Magnitude (a.u.)       :      3.233358413
Magnitude (Debye)      :      8.218543948



--------------------
Rotational spectrum 
--------------------
 
Rotational constants in cm-1:             0.019108             0.014369             0.011975 
Rotational constants in MHz :           572.838020           430.757714           359.003460 

Dipole components along the rotational axes: 
x,y,z [a.u.] :     0.146058    -1.773652     2.699524 
x,y,z [Debye]:     0.371249    -4.508266     6.861646 

 

Dipole moment calculation done in   0.1 sec 

Maximum memory used throughout the entire PROP-calculation: 76.1 MB

--------------------------------
SUGGESTED CITATIONS FOR THIS RUN
--------------------------------

Below you find a list of papers that are relevant to this ORCA run
We neither can nor want to force you to cite these papers, but we appreciate if you do
You receive ORCA, which is the product of decades of hard work by many enthusiastic individuals, for free
The only thing we kindly ask in return is that you cite our papers,
We deeply appreciate it, if you show your appreciation for ORCA by not just citing the generic ORCA reference.

Please note that relegating all ORCA citations to the supporting information does *not* help us.
SI sections are not indexed - citations you put there will not count into any citation statistics
But we need these citations in order to attract the funding resources that allow us to do what we are doing

Therefore, if you are a happy ORCA user, please consider citing a few of the papers listed below in the main body of your paper

In addition to the list printed below, the program has created the file orca.bibtex that contains the list in bibtex format
You can import this file easily into all common literature databanks and citation aid programs


List of essential papers. We consider these as the minimum necessary citations

  1. Neese,F.
     Software update: the ORCA program system, version 5.0
     WIRES Comput. Molec. Sci., 2022 12(1)e1606
     doi.org/10.1002/wcms.1606

List of papers to cite with high priority. The work reported in these papers was absolutely
necessary for this run to complete.
Our perspective: the developers of density functionals and basis sets usually get cited in chemistry papers
Good! But without the algorithms to do something with them, the functionals or basis sets would not do anything.
Hence, in our opinion, the algorithm design and method developments papers are equally worthy of getting cited

  1. Neese,F.
     An improvement of the resolution of the identity approximation for the formation of the Coulomb matrix
     J. Comp. Chem., 2003 24(14)1740-1747
     doi.org/10.1002/jcc.10318
  2. Neese,F.; Wennmohs,F.; Hansen,A.; Becker,U.
     Efficient, approximate and parallel Hartree-Fock and hybrid DFT calculations. A 'chain-of-spheres' algorithm for the Hartree-Fock exchange
     Chem. Phys., 2009 356(1-3)98-109
     doi.org/10.1016/j.chemphys.2008.10.036
  3. Helmich-Paris,B.; de Souza,B.; Neese,F.; Izsák,R.
     An improved chain of spheres for exchange algorithm
     J. Chem. Phys., 2021 155 104109
     doi.org/doi: 10.1063/5.0058766.
  4. Neese,F.
     The SHARK Integral Generation and Digestion System
     J. Comp. Chem., 2022  1-16
     doi.org/10.1002/jcc.26942
  5. Lehtola,S.; Steigemann,C.; Oliveira,M.; Marques,M.
     Recent developments in Libxc - A comprehensive library of functionals for density functional theory
     Software X, 2018 7 
     doi.org/10.1016/j.softx.2017.11.002
  6. Grimme,S.; Antony,J.; Ehrlich,S.; Krieg,H.
     A consistent and accurate ab initio parametrization of density functional dispersion correction (DFT-D) for the 94 elements H-Pu
     J. Chem. Phys., 2010 132 154104-XXXX
     doi.org/10.1063/1.3382344
  7. Grimme,S.; Ehrlich,S.; Goerigk,L.
     Effect of the damping function in dispersion corrected density functional theory
     J. Comput. Chem., 2011 32(7)1456-1465
     doi.org/10.1002/jcc.21759

List of suggested additional citations. These are papers that are important in the 'surrounding' of 
of this run, or papers that preceded the highly important papers. If you like your results we are grateful for a citation.

  1. Izsak,R.; Neese,F.
     An overlap fitted chain of spheres exchange method
     J. Chem. Phys., 2011 135 144105
     doi.org/10.1063/1.3646921
  2. Izsak,R.; Hansen,A.; Neese,F.
     The resolution of identity and chain of spheres approximations for the LPNO-CCSD singles Fock term
     Molec. Phys., 2012 110 2413-2417
     doi.org/10.1080/00268976.2012.687466
  3. Neese,F.
     The ORCA program system
     WIRES Comput. Molec. Sci., 2012 2(1)73-78
     doi.org/10.1002/wcms.81
  4. Izsak,R.; Neese,F.; Klopper,W.
     Robust fitting techniques in the chain of spheres approximation to the Fock exchange: The role of the complementary space
     J. Chem. Phys., 2013 139 
     doi.org/10.1063/1.4819264
  5. Neese,F.
     Software update: the ORCA program system, version 4.0
     WIRES Comput. Molec. Sci., 2018 8(1)1-6
     doi.org/10.1002/wcms.1327
  6. Neese,F.; Wennmohs,F.; Becker,U.; Riplinger,C.
     The ORCA quantum chemistry program package
     J. Chem. Phys., 2020 152 Art. No. L224108
     doi.org/10.1063/5.0004608

List of optional additional citations

  1. Neese,F.
     Approximate second-order SCF convergence for spin unrestricted wavefunctions
     Chem. Phys. Lett., 2000 325(1-3)93-98
     doi.org/10.1016/s0009-2614(00)00662-x

Timings for individual modules:

Sum of individual times          ...     5551.295 sec (=  92.522 min)
Startup calculation              ...      108.366 sec (=   1.806 min)   2.0 %
SCF iterations                   ...     3818.957 sec (=  63.649 min)  68.8 %
Property calculations            ...        1.010 sec (=   0.017 min)   0.0 %
SCF Gradient evaluation          ...     1622.412 sec (=  27.040 min)  29.2 %
Geometry relaxation              ...        0.549 sec (=   0.009 min)   0.0 %
                             ****ORCA TERMINATED NORMALLY****
TOTAL RUN TIME: 0 days 1 hours 32 minutes 49 seconds 391 msec
