7
Properties=species:S:1:pos:R:3:momenta:R:3:forces:R:3 Coordinates=T from=T ORCA-job=T orca=T E=T -153.930674962412=T energy=-4184.014490060479 free_energy=-4184.014490060479 stress="1.371342457386072e-05 -2.222774438226592e-06 -7.34284492174188e-06 -2.222774438226592e-06 1.1824263217445679e-05 3.6192438176398004e-06 -7.34284492174188e-06 3.6192438176398004e-06 6.913361598454897e-06" pbc="F F F"
O        0.72770055       1.34326751       0.30083300      -0.69273162       0.93769474       1.23816789       0.38690206      -1.58352964      -0.85630367
C        0.69344290       0.11040857      -0.27484725      -0.00087817      -0.11014661      -0.37765049      -0.40603309       0.03586800      -0.73502203
C       -0.57379066      -0.74928946       0.00899493       0.93265790      -0.41000997      -0.91070370      -0.26246580       1.69686219       1.48249215
H       -0.42933869      -1.41350712       0.88082955       0.08308771      -0.01698719       0.23759653       0.08362238       0.14635134      -0.46022883
H        1.43079829      -0.21774451      -1.13334613      -0.21565743      -0.51643359      -0.15019610      -1.06550202       0.93756332       1.67984556
H       -0.88726084      -1.27927406      -0.84645292      -0.16145565       0.28159848       0.29420858       0.13309927      -0.80610319      -0.94182126
H       -1.45579352      -0.08908005       0.26986909       0.05497725      -0.16571586      -0.33142271       1.13037720      -0.42701202      -0.16896192
