30
Properties=species:S:1:pos:R:3:momenta:R:3:forces:R:3 Coordinates=T from=T ORCA-job=T orca=T E=T -908.914928737927=T energy=-24728.953525885354 free_energy=-24728.953525885354 stress="-1.229230905633365e-06 2.07117523136733e-06 -7.439283385071677e-07 2.07117523136733e-06 2.0979433307349236e-06 -1.4505341324817056e-06 -7.439283385071677e-07 -1.4505341324817056e-06 -1.1708414945373978e-06" pbc="F F F"
O        2.84952755       1.27339450      -0.50976771      -0.03884624       0.21093353      -0.20360223      -0.82150737      -0.82176750       0.65290253
O       -0.49568932       0.50470147      -1.97391336      -0.29705709      -0.26650151       0.22515152       0.23623917       0.04290217      -0.54488986
O        1.32975735      -2.85782167      -1.64693912       0.36092138       0.26735140      -0.33195590       0.37974459       0.23796718      -0.43328398
O       -3.03924665      -1.48394190       1.19518817      -0.07123999       0.07638882      -0.13661956       0.10434566       0.29205108       0.06087893
N        0.66451600      -1.94713451       0.33577357      -0.11934967       0.11398362      -0.16822331       0.23592353      -0.85305442       0.27607039
N       -2.21764720       0.61015950       1.60259529      -0.20577610       0.41451261       0.03074828      -0.76069019       0.21740805       0.44182619
N        2.08852874      -0.79828745      -1.04552129      -0.10015383       0.02609859       0.06888907       0.18298595       1.72446672       1.25784055
N       -1.86545525      -0.39578975      -0.43540546       0.10067115       0.06215746      -0.13951525      -0.37861272       0.00131597       0.04680424
C        1.28578669       0.29621352       0.95061328       0.31444461       0.05665996       0.35713571      -3.40306332      -5.20745563       3.59197115
C       -0.74456280       1.68162400       0.06428895      -0.21536452       0.30082387      -0.35896081      -0.40672862       0.29093395      -0.59572849
C        0.65192256      -0.93315239       1.23759639      -0.19749086      -0.37970621       0.15836221       3.09113500       5.11048955      -3.82971257
C       -1.46824914       1.68073026       1.20568461       0.11305521      -0.50484200       0.34039469       0.39208553      -0.31196420       0.06478573
C        1.47103143       1.30665793       2.01531849       0.18463978      -0.07125447      -0.13000689       1.04520470       0.64650653       0.73722734
C       -0.00073091       2.87640974      -0.42538751       0.19366347      -0.05262081       0.11035828      -0.00278987      -0.14327265      -0.00406376
C        2.10979411       0.33849249      -0.22422665       0.04175332       0.07550522      -0.20075242       2.00862771       0.16089131      -3.16932030
C       -0.98267876       0.58240468      -0.87727660      -0.12307340      -0.15527599      -0.09357058      -0.19794925       0.16359179       0.41917306
C        1.35648682      -1.93811947      -0.85464067       0.00146850      -0.26580611       0.32706263      -1.17346854      -1.56205291       0.98107305
C       -2.41455505      -0.50659855       0.82203970       0.36532492      -0.04891316       0.12095407      -0.22240752      -0.55973538      -0.11374807
H        0.12636219      -1.07475126       2.15455468      -0.12055819       0.00568252       0.15292821      -0.11433207       0.10757407       0.48900133
H       -1.44392512       2.51259763       1.87960754      -0.02115308       0.06630875      -0.03638101      -0.12082373       0.23902937       0.17874567
H        1.36522156       2.32095677       1.65115948       0.01685046       0.02091467       0.05984998       0.03105222      -0.04319376      -0.05678257
H        0.77145270       1.15717912       2.83570289      -0.01661003       0.00693442      -0.02116687      -0.03175945      -0.00389027       0.03291229
H        2.49367755       1.24572848       2.40418041      -0.00095523       0.06935642      -0.03093192      -0.23559478       0.06486197       0.01629628
H       -0.44186748       3.20335385      -1.35626147      -0.01510849       0.00386359      -0.05868839      -0.00735748       0.16062689      -0.22794258
H       -0.05636311       3.67843013       0.30005352      -0.01663373      -0.04321302       0.00462376       0.05445714       0.08842154       0.07603349
H        1.04779510       2.66291550      -0.63011503       0.01943312      -0.01615071       0.00156579      -0.10644055      -0.08590859       0.03547293
H        0.12640949      -2.77816445       0.52035181      -0.03663051       0.00046800      -0.06629211       0.01506800       0.11600652      -0.19003686
H       -2.69935501       0.59648530       2.49209679      -0.08512789       0.00971768       0.00285129       0.11784918      -0.01350115      -0.18399557
H        2.60582531      -0.72627038      -1.90573659      -0.04710399       0.03401690      -0.02670200       0.00829404       0.01258923      -0.08710296
H       -2.00560799      -1.19030286      -1.03993253       0.01600694      -0.01739401       0.04249375       0.08051303      -0.07183742       0.07759243
