
                                 *****************
                                 * O   R   C   A *
                                 *****************

                                            #,                                       
                                            ###                                      
                                            ####                                     
                                            #####                                    
                                            ######                                   
                                           ########,                                 
                                     ,,################,,,,,                         
                               ,,#################################,,                 
                          ,,##########################################,,             
                       ,#########################################, ''#####,          
                    ,#############################################,,   '####,        
                  ,##################################################,,,,####,       
                ,###########''''           ''''###############################       
              ,#####''   ,,,,##########,,,,          '''####'''          '####       
            ,##' ,,,,###########################,,,                        '##       
           ' ,,###''''                  '''############,,,                           
         ,,##''                                '''############,,,,        ,,,,,,###''
      ,#''                                            '''#######################'''  
     '                                                          ''''####''''         
             ,#######,   #######,   ,#######,      ##                                
            ,#'     '#,  ##    ##  ,#'     '#,    #''#        ,####,   ,####,        
            ##       ##  ##   ,#'  ##            #'  '#       #'       #'  '#        
            ##       ##  #######   ##           ,######,      #####,   #    #        
            '#,     ,#'  ##    ##  '#,     ,#' ,#      #,     #,   #   #,  ,#        
             '#######'   ##     ##  '#######'  #'      '#     '####' # '####'        



                #########################################################
                #                        -***-                          #
                #          Department of theory and spectroscopy        #
                #                                                       #
                #                      Frank Neese                      #
                #                                                       #
                #     Directorship, Architecture, Infrastructure        #
                #                    SHARK, DRIVERS                     #
                #        Core code/Algorithms in most modules           #
                #                                                       #
                #        Max Planck Institute fuer Kohlenforschung      #
                #                Kaiser Wilhelm Platz 1                 #
                #                 D-45470 Muelheim/Ruhr                 #
                #                      Germany                          #
                #                                                       #
                #                  All rights reserved                  #
                #                        -***-                          #
                #########################################################


                         Program Version 6.0.0  -   RELEASE  -


 With contributions from (in alphabetic order):
   Daniel Aravena         : Magnetic Suceptibility
   Michael Atanasov       : Ab Initio Ligand Field Theory (pilot matlab implementation)
   Alexander A. Auer      : GIAO ZORA, VPT2 properties, NMR spectrum
   Ute Becker             : All parallelization in ORCA, NUMFREQ, NUMCALC
   Giovanni Bistoni       : ED, misc. LED, open-shell LED, HFLD
   Martin Brehm           : Molecular dynamics
   Dmytro Bykov           : pre 5.0 version of the SCF Hessian
   Marcos Casanova-Páez   : Triplet and SCS-CIS(D). UHF-(DLPNO)-IP/EA/STEOM-CCSD. UHF-CVS-IP/STEOM-CCSD
   Vijay G. Chilkuri      : MRCI spin determinant printing, contributions to CSF-ICE
   Pauline Colinet        : FMM embedding
   Dipayan Datta          : RHF DLPNO-CCSD density
   Achintya Kumar Dutta   : EOM-CC, STEOM-CC
   Nicolas Foglia         : Exact transition moments, OPA infrastructure, MCD improvements
   Dmitry Ganyushin       : Spin-Orbit,Spin-Spin,Magnetic field MRCI
   Miquel Garcia          : C-PCM and meta-GGA Hessian, CCSD/C-PCM, Gaussian charge scheme
   Tiago L. C. Gouveia    : GS-ROHF, GS-ROCIS
   Yang Guo               : DLPNO-NEVPT2, F12-NEVPT2, CIM, IAO-localization
   Andreas Hansen         : Spin unrestricted coupled pair/coupled cluster methods
   Ingolf Harden          : AUTO-CI MPn and infrastructure 
   Benjamin Helmich-Paris : MC-RPA, TRAH-(SCF,CASSCF), AVAS, COSX integrals, SCF dyn. polar.
   Lee Huntington         : MR-EOM, pCC
   Robert Izsak           : Overlap fitted RIJCOSX, COSX-SCS-MP3, EOM
   Riya Kayal             : Wick's Theorem for AUTO-CI, AUTO-CI UHF-CCSDT
   Emily Kempfer          : AUTO-CI, RHF CISDT and CCSDT
   Christian Kollmar      : KDIIS, OOCD, Brueckner-CCSD(T), CCSD density, CASPT2, CASPT2-K, improved NEVPT2
   Axel Koslowski         : Symmetry handling
   Simone Kossmann        : Meta GGA functionals, TD-DFT gradient, OOMP2, (MP2 Hessian; deprecated post 5.0)
   Lucas Lang             : DCDCAS
   Marvin Lechner         : AUTO-CI (C++ implementation), FIC-MRCC
   Spencer Leger          : CASSCF response
   Dagmar Lenk            : GEPOL surface, SMD, ORCA-2-JSON
   Dimitrios Liakos       : Extrapolation schemes; Compound Job, initial MDCI parallelization
   Dimitrios Manganas     : Further ROCIS development; embedding schemes. LFT, Crystal Embedding
   Dimitrios Pantazis     : SARC Basis sets
   Anastasios Papadopoulos: AUTO-CI, single reference methods and gradients
   Taras Petrenko         : pre 6.0 DFT Hessian and TD-DFT gradient, (ASA, deprecated), ECA, 1-Electron XAS/XES, NRVS
   Peter Pinski           : DLPNO-MP2, DLPNO-MP2 Gradient
   Christoph Reimann      : Effective Core Potentials
   Marius Retegan         : Local ZFS, SOC
   Christoph Riplinger    : Optimizer, TS searches, QM/MM, DLPNO-CCSD(T), (RO)-DLPNO pert. Triples
   Michael Roemelt        : Original ROCIS implementation
   Masaaki Saitow         : Open-shell DLPNO-CCSD energy and density
   Barbara Sandhoefer     : DKH picture change effects
   Kantharuban Sivalingam : CASSCF convergence/infrastructure, NEVPT2 and variants, FIC-MRCI
   Bernardo de Souza      : ESD, SOC TD-DFT
   Georgi Stoychev        : AutoAux, RI-MP2 NMR, DLPNO-MP2 response, X2C
   Van Anh Tran           : RI-MP2 g-tensors
   Willem Van den Heuvel  : Paramagnetic NMR
   Zikuan Wang            : NOTCH, Electric field optimization 
   Frank Wennmohs         : Technical directorship and infrastructure
   Hang Xu                : AUTO-CI-Response properties 


 We gratefully acknowledge several colleagues who have allowed us to
 interface, adapt or use parts of their codes:
   Stefan Grimme, W. Hujo, H. Kruse, P. Pracht,  : VdW corrections, initial TS optimization,
                  C. Bannwarth, S. Ehlert,         DFT functionals, gCP, sTDA/sTD-DF
                  L. Wittmann, M. Mueller
   Ed Valeev, F. Pavosevic, A. Kumar             : LibInt (2-el integral package), F12 methods
   Garnet Chan, S. Sharma, J. Yang, R. Olivares  : DMRG
   Ulf Ekstrom                                   : XCFun DFT Library
   Mihaly Kallay                                 : mrcc  (arbitrary order and MRCC methods)
   Frank Weinhold                                : gennbo (NPA and NBO analysis)
   Simon Mueller                                 : openCOSMO-RS
   Christopher J. Cramer and Donald G. Truhlar   : smd solvation model
   Lars Goerigk                                  : TD-DFT with DH, B97 family of functionals
   V. Asgeirsson, H. Jonsson                     : NEB implementation
   FAccTs GmbH                                   : IRC, NEB, NEB-TS, DLPNO-Multilevel, CI-OPT
                                                   MM, QMMM, 2- and 3-layer-ONIOM, Crystal-QMMM,
                                                   LR-CPCM, SF, NACMEs, symmetry and pop. for TD-DFT,
                                                   nearIR, NL-DFT gradient (VV10), updates on ESD,
                                                   ML-optimized integration grids, MBIS, APM,
                                                   GOAT, DOCKER, SOLVATOR, interface openCOSMO-RS
   S Lehtola, MJT Oliveira, MAL Marques          : LibXC Library
   Liviu Ungur et al                             : ANISO software


 Your calculation uses the libint2 library for the computation of 2-el integrals
 For citations please refer to: http://libint.valeyev.net

 Your ORCA version has been built with support for libXC version: 6.2.2
 For citations please refer to: https://libxc.gitlab.io

 This ORCA versions uses:
   CBLAS   interface :  Fast vector & matrix operations
   LAPACKE interface :  Fast linear algebra routines
   SCALAPACK package :  Parallel linear algebra routines
   Shared memory     :  Shared parallel matrices
   BLAS/LAPACK       :  OpenBLAS 0.3.27  USE64BITINT DYNAMIC_ARCH NO_AFFINITY Zen SINGLE_THREADED
        Core in use  :  Zen
   Copyright (c) 2011-2014, The OpenBLAS Project


Your calculation utilizes the atom-pairwise dispersion correction
with the Becke-Johnson damping scheme (D3BJ)


Warning: RI is on but no J-basis has been assigned. Assigning Def2/J (nothing to worry about!)
================================================================================

----- Orbital basis set information -----
Your calculation utilizes the basis: def2-TZVPPD
   F. Weigend and R. Ahlrichs, Phys. Chem. Chem. Phys. 7, 3297 (2005).
   D. Rappoport and F. Furche, J. Chem. Phys. 133, 134105 (2010)
   D. Rappoport, J. Chem. Phys. 155, 124102 (2021).

----- AuxJ basis set information -----
Your calculation utilizes the auxiliary basis: def2/J
   F. Weigend, Phys. Chem. Chem. Phys. 8, 1057 (2006).

================================================================================
                                        WARNINGS
                       Please study these warnings very carefully!
================================================================================

Using LibXC functional ID 531 : wB97M-V exchange-correlation functional
[ 1]  N. Mardirossian and M. Head-Gordon.,  J. Chem. Phys. 144, 214110 (2016)
Using LibXC functional ID 531 : wB97M-V exchange-correlation functional
[ 1]  N. Mardirossian and M. Head-Gordon.,  J. Chem. Phys. 144, 214110 (2016)

WARNING: B97M-V or wB97M-V functional requested.
  ===> : libXC variant has now been activated.
         Any manually given DFX/HFX/RangeSep scaling parameters are IGNORED!

Your calculation utilizes LibXC
 by S Lehtola, C Steigemann, MJT Oliveira & MAL Marques
Please cite in your paper:
 S Lehtola, C Steigemann, MJT Oliveira & MAL Marques, SoftwareX, 7, (2018), 1.
   


WARNING: your system is open-shell and RHF/RKS was chosen
  ===> : WILL SWITCH to UHF/UKS

INFO   : Checking CIS options ...

WARNING: CIS/ROCIS methods need fully converged wavefunctions
  ===> : Setting SCFConvForced true
         You can overwrite this default with %scf ConvForced false 


================================================================================
                                       INPUT FILE
================================================================================
NAME = orca.inp
|  1> ! Engrad def2-TZVPPD wB97M-D3BJ 
|  2> %pal nprocs 8 end%pal nprocs 64 end 
|  3> %tddft 
|  4>  Iroot 1 Nroots 3 
|  5> sf true 
|  6> end 
|  7> *xyz 0 3 
|  8> O   0.21573414 1.1253826 0.51384961
|  9> C   0.44353033 -0.27470135 0.47608859
| 10> C   0.56410856 -0.71998042 -0.87420549
| 11> H   -0.36704149 -0.85247577 0.99579505
| 12> H   1.22227608 -0.48375508 1.34971864
| 13> H   -0.05487779 -1.42410565 -1.25956799
| 14> H   1.50165909 -0.41107032 -1.34054453
| 15> *
| 16> 
| 17>                          ****END OF INPUT****
================================================================================

                     *******************************
                     * Energy+Gradient Calculation *
                     *******************************

---------------------------------
CARTESIAN COORDINATES (ANGSTROEM)
---------------------------------
  O      0.215734    1.125383    0.513850
  C      0.443530   -0.274701    0.476089
  C      0.564109   -0.719980   -0.874205
  H     -0.367041   -0.852476    0.995795
  H      1.222276   -0.483755    1.349719
  H     -0.054878   -1.424106   -1.259568
  H      1.501659   -0.411070   -1.340545

----------------------------
CARTESIAN COORDINATES (A.U.)
----------------------------
  NO LB      ZA    FRAG     MASS         X           Y           Z
   0 O     8.0000    0    15.999    0.407678    2.126665    0.971035
   1 C     6.0000    0    12.011    0.838151   -0.519110    0.899677
   2 C     6.0000    0    12.011    1.066011   -1.360566   -1.652009
   3 H     1.0000    0     1.008   -0.693608   -1.610946    1.881780
   4 H     1.0000    0     1.008    2.309767   -0.914165    2.550599
   5 H     1.0000    0     1.008   -0.103704   -2.691170   -2.380239
   6 H     1.0000    0     1.008    2.837724   -0.776810   -2.533262

--------------------------------
INTERNAL COORDINATES (ANGSTROEM)
--------------------------------
 O      0   0   0     0.000000000000     0.00000000     0.00000000
 C      1   0   0     1.418996851955     0.00000000     0.00000000
 C      2   1   0     1.426922093954   110.28217670     0.00000000
 H      2   1   3     1.122917966884   112.30120308   237.21348499
 H      2   1   3     1.188855697481   105.01672798   138.16229559
 H      3   2   1     1.013627494406   121.66385574   238.63683155
 H      3   2   1     1.091741061980   112.86020283    72.17219566

---------------------------
INTERNAL COORDINATES (A.U.)
---------------------------
 O      0   0   0     0.000000000000     0.00000000     0.00000000
 C      1   0   0     2.681515435091     0.00000000     0.00000000
 C      2   1   0     2.696491972014   110.28217670     0.00000000
 H      2   1   3     2.122007428270   112.30120308   237.21348499
 H      2   1   3     2.246611680991   105.01672798   138.16229559
 H      3   2   1     1.915478366240   121.66385574   238.63683155
 H      3   2   1     2.063091616299   112.86020283    72.17219566

---------------------
BASIS SET INFORMATION
---------------------
There are 3 groups of distinct atoms

 Group   1 Type O   : 12s7p3d1f contracted to 6s4p3d1f pattern {621111/4111/111/1}
 Group   2 Type C   : 12s6p3d1f contracted to 6s3p3d1f pattern {621111/411/111/1}
 Group   3 Type H   : 5s3p1d contracted to 3s3p1d pattern {311/111/1}

Atom   0O    basis set group =>   1
Atom   1C    basis set group =>   2
Atom   2C    basis set group =>   2
Atom   3H    basis set group =>   3
Atom   4H    basis set group =>   3
Atom   5H    basis set group =>   3
Atom   6H    basis set group =>   3
---------------------------------
AUXILIARY/J BASIS SET INFORMATION
---------------------------------
There are 3 groups of distinct atoms

 Group   1 Type O   : 12s5p4d2f1g contracted to 6s4p3d1f1g pattern {711111/2111/211/2/1}
 Group   2 Type C   : 12s5p4d2f1g contracted to 6s4p3d1f1g pattern {711111/2111/211/2/1}
 Group   3 Type H   : 5s2p1d contracted to 3s1p1d pattern {311/2/1}

Atom   0O    basis set group =>   1
Atom   1C    basis set group =>   2
Atom   2C    basis set group =>   2
Atom   3H    basis set group =>   3
Atom   4H    basis set group =>   3
Atom   5H    basis set group =>   3
Atom   6H    basis set group =>   3
[1741607098.289220] [ohm:3104932:0]        ib_iface.c:1059 UCX  ERROR ibv_create_cq(cqe=256) failed: Connection timed out
[1741607098.295714] [ohm:3104927:0]        ib_iface.c:1059 UCX  ERROR ibv_create_cq(cqe=256) failed: Connection timed out
[1741607098.306786] [ohm:3104928:0]        ib_iface.c:1059 UCX  ERROR ibv_create_cq(cqe=256) failed: Connection timed out
[1741607098.341509] [ohm:3104935:0]        ib_iface.c:1059 UCX  ERROR ibv_create_cq(cqe=256) failed: Connection timed out
[1741607098.345516] [ohm:3104931:0]        ib_iface.c:1059 UCX  ERROR ibv_create_cq(cqe=256) failed: Connection timed out
[1741607098.346913] [ohm:3104937:0]        ib_iface.c:1059 UCX  ERROR ibv_create_cq(cqe=256) failed: Connection timed out
[1741607098.352542] [ohm:3104930:0]        ib_iface.c:1059 UCX  ERROR ibv_create_cq(cqe=256) failed: Connection timed out
[1741607098.365621] [ohm:3104934:0]        ib_iface.c:1059 UCX  ERROR ibv_create_cq(cqe=256) failed: Connection timed out
[1741607098.378321] [ohm:3104929:0]        ib_iface.c:1059 UCX  ERROR ibv_create_cq(cqe=256) failed: Connection timed out
[1741607098.378330] [ohm:3104933:0]        ib_iface.c:1059 UCX  ERROR ibv_create_cq(cqe=256) failed: Connection timed out
[1741607098.389381] [ohm:3104984:0]        ib_iface.c:1059 UCX  ERROR ibv_create_cq(cqe=256) failed: Connection timed out
[1741607098.389918] [ohm:3104954:0]        ib_iface.c:1059 UCX  ERROR ibv_create_cq(cqe=256) failed: Connection timed out
[1741607098.392141] [ohm:3104974:0]        ib_iface.c:1059 UCX  ERROR ibv_create_cq(cqe=256) failed: Connection timed out
[1741607098.397089] [ohm:3104990:0]        ib_iface.c:1059 UCX  ERROR ibv_create_cq(cqe=256) failed: Connection timed out
[1741607098.405258] [ohm:3105001:0]        ib_iface.c:1059 UCX  ERROR ibv_create_cq(cqe=256) failed: Connection timed out
[1741607098.413979] [ohm:3105058:0]        ib_iface.c:1059 UCX  ERROR ibv_create_cq(cqe=256) failed: Connection timed out
[1741607098.419507] [ohm:3105008:0]        ib_iface.c:1059 UCX  ERROR ibv_create_cq(cqe=256) failed: Connection timed out
[1741607098.425028] [ohm:3104936:0]        ib_iface.c:1059 UCX  ERROR ibv_create_cq(cqe=256) failed: Connection timed out
[1741607098.425393] [ohm:3104940:0]        ib_iface.c:1059 UCX  ERROR ibv_create_cq(cqe=256) failed: Connection timed out
[1741607098.426368] [ohm:3104956:0]        ib_iface.c:1059 UCX  ERROR ibv_create_cq(cqe=256) failed: Connection timed out
[1741607098.440264] [ohm:3104945:0]        ib_iface.c:1059 UCX  ERROR ibv_create_cq(cqe=256) failed: Connection timed out
[1741607098.447394] [ohm:3105064:0]        ib_iface.c:1059 UCX  ERROR ibv_create_cq(cqe=256) failed: Connection timed out
[1741607098.473056] [ohm:3104939:0]        ib_iface.c:1059 UCX  ERROR ibv_create_cq(cqe=256) failed: Connection timed out
[1741607098.482628] [ohm:3105057:0]        ib_iface.c:1059 UCX  ERROR ibv_create_cq(cqe=256) failed: Connection timed out
[1741607098.483386] [ohm:3105041:0]        ib_iface.c:1059 UCX  ERROR ibv_create_cq(cqe=256) failed: Connection timed out
[1741607098.488636] [ohm:3105046:0]        ib_iface.c:1059 UCX  ERROR ibv_create_cq(cqe=256) failed: Connection timed out
[1741607098.502997] [ohm:3105005:0]        ib_iface.c:1059 UCX  ERROR ibv_create_cq(cqe=256) failed: Connection timed out
[1741607098.516133] [ohm:3105015:0]        ib_iface.c:1059 UCX  ERROR ibv_create_cq(cqe=256) failed: Connection timed out
[1741607098.527782] [ohm:3105022:0]        ib_iface.c:1059 UCX  ERROR ibv_create_cq(cqe=256) failed: Connection timed out
[1741607098.528358] [ohm:3104999:0]        ib_iface.c:1059 UCX  ERROR ibv_create_cq(cqe=256) failed: Connection timed out
[1741607098.529265] [ohm:3104963:0]        ib_iface.c:1059 UCX  ERROR ibv_create_cq(cqe=256) failed: Connection timed out
[1741607098.529850] [ohm:3104993:0]        ib_iface.c:1059 UCX  ERROR ibv_create_cq(cqe=256) failed: Connection timed out
[1741607098.540417] [ohm:3105032:0]        ib_iface.c:1059 UCX  ERROR ibv_create_cq(cqe=256) failed: Connection timed out
[1741607098.544020] [ohm:3105028:0]        ib_iface.c:1059 UCX  ERROR ibv_create_cq(cqe=256) failed: Connection timed out
[1741607098.546329] [ohm:3105073:0]        ib_iface.c:1059 UCX  ERROR ibv_create_cq(cqe=256) failed: Connection timed out
[1741607098.549224] [ohm:3104991:0]        ib_iface.c:1059 UCX  ERROR ibv_create_cq(cqe=256) failed: Connection timed out
[1741607098.555920] [ohm:3105048:0]        ib_iface.c:1059 UCX  ERROR ibv_create_cq(cqe=256) failed: Connection timed out
[1741607098.572679] [ohm:3104967:0]        ib_iface.c:1059 UCX  ERROR ibv_create_cq(cqe=256) failed: Connection timed out
[1741607098.573236] [ohm:3105011:0]        ib_iface.c:1059 UCX  ERROR ibv_create_cq(cqe=256) failed: Connection timed out
[1741607098.577516] [ohm:3104983:0]        ib_iface.c:1059 UCX  ERROR ibv_create_cq(cqe=256) failed: Connection timed out
[1741607098.579292] [ohm:3104958:0]        ib_iface.c:1059 UCX  ERROR ibv_create_cq(cqe=256) failed: Connection timed out
[1741607098.581333] [ohm:3104994:0]        ib_iface.c:1059 UCX  ERROR ibv_create_cq(cqe=256) failed: Connection timed out
[1741607098.584381] [ohm:3104987:0]        ib_iface.c:1059 UCX  ERROR ibv_create_cq(cqe=256) failed: Connection timed out
[1741607098.586070] [ohm:3105078:0]        ib_iface.c:1059 UCX  ERROR ibv_create_cq(cqe=256) failed: Connection timed out
[1741607098.591043] [ohm:3104989:0]        ib_iface.c:1059 UCX  ERROR ibv_create_cq(cqe=256) failed: Connection timed out
[1741607098.592797] [ohm:3105067:0]        ib_iface.c:1059 UCX  ERROR ibv_create_cq(cqe=256) failed: Connection timed out
[1741607098.594083] [ohm:3105026:0]        ib_iface.c:1059 UCX  ERROR ibv_create_cq(cqe=256) failed: Connection timed out
[1741607098.595751] [ohm:3104992:0]        ib_iface.c:1059 UCX  ERROR ibv_create_cq(cqe=256) failed: Connection timed out
[1741607098.595983] [ohm:3105069:0]        ib_iface.c:1059 UCX  ERROR ibv_create_cq(cqe=256) failed: Connection timed out
[1741607098.596023] [ohm:3104978:0]        ib_iface.c:1059 UCX  ERROR ibv_create_cq(cqe=256) failed: Connection timed out
[1741607098.597412] [ohm:3105042:0]        ib_iface.c:1059 UCX  ERROR ibv_create_cq(cqe=256) failed: Connection timed out
[1741607098.598495] [ohm:3104985:0]        ib_iface.c:1059 UCX  ERROR ibv_create_cq(cqe=256) failed: Connection timed out
[1741607098.598744] [ohm:3104981:0]        ib_iface.c:1059 UCX  ERROR ibv_create_cq(cqe=256) failed: Connection timed out
[1741607098.599095] [ohm:3104942:0]        ib_iface.c:1059 UCX  ERROR ibv_create_cq(cqe=256) failed: Connection timed out
[1741607098.604680] [ohm:3104986:0]        ib_iface.c:1059 UCX  ERROR ibv_create_cq(cqe=256) failed: Connection timed out
[1741607098.605869] [ohm:3104980:0]        ib_iface.c:1059 UCX  ERROR ibv_create_cq(cqe=256) failed: Connection timed out
[1741607098.607673] [ohm:3104982:0]        ib_iface.c:1059 UCX  ERROR ibv_create_cq(cqe=256) failed: Connection timed out
[1741607098.607767] [ohm:3104995:0]        ib_iface.c:1059 UCX  ERROR ibv_create_cq(cqe=256) failed: Connection timed out
[1741607098.608680] [ohm:3105050:0]        ib_iface.c:1059 UCX  ERROR ibv_create_cq(cqe=256) failed: Connection timed out
[1741607098.612576] [ohm:3105075:0]        ib_iface.c:1059 UCX  ERROR ibv_create_cq(cqe=256) failed: Connection timed out
[1741607098.613027] [ohm:3104976:0]        ib_iface.c:1059 UCX  ERROR ibv_create_cq(cqe=256) failed: Connection timed out
[1741607098.614959] [ohm:3105035:0]        ib_iface.c:1059 UCX  ERROR ibv_create_cq(cqe=256) failed: Connection timed out
[1741607098.614970] [ohm:3104988:0]        ib_iface.c:1059 UCX  ERROR ibv_create_cq(cqe=256) failed: Connection timed out
[1741607098.615879] [ohm:3105019:0]        ib_iface.c:1059 UCX  ERROR ibv_create_cq(cqe=256) failed: Connection timed out


           ************************************************************
           *        Program running with 64 parallel MPI-processes    *
           *              working on a common directory               *
           ************************************************************
------------------------------------------------------------------------------
                             ORCA STARTUP CALCULATIONS
                           -- RI-GTO INTEGRALS CHOSEN --
------------------------------------------------------------------------------
------------------------------------------------------------------------------
                   ___                                                        
                  /   \      - P O W E R E D   B Y -                         
                 /     \                                                     
                 |  |  |   _    _      __       _____    __    __             
                 |  |  |  | |  | |    /  \     |  _  \  |  |  /  |          
                  \  \/   | |  | |   /    \    | | | |  |  | /  /          
                 / \  \   | |__| |  /  /\  \   | |_| |  |  |/  /          
                |  |  |   |  __  | /  /__\  \  |    /   |      \           
                |  |  |   | |  | | |   __   |  |    \   |  |\   \          
                \     /   | |  | | |  |  |  |  | |\  \  |  | \   \       
                 \___/    |_|  |_| |__|  |__|  |_| \__\ |__|  \__/        
                                                                              
                      - O R C A' S   B I G   F R I E N D -                    
                                      &                                       
                       - I N T E G R A L  F E E D E R -                       
                                                                              
 v1 FN, 2020, v2 2021, v3 2022-2024                                           
------------------------------------------------------------------------------


----------------------
SHARK INTEGRAL PACKAGE
----------------------

Number of atoms                             ...      7
Number of basis functions                   ...    182
Number of shells                            ...     68
Maximum angular momentum                    ...      3
Integral batch strategy                     ... SHARK/LIBINT Hybrid
RI-J (if used) integral strategy            ... SPLIT-RIJ (Revised 2003 algorithm where possible)
Printlevel                                  ...      1
Contraction scheme used                     ... SEGMENTED contraction
Prescreening option                         ... SCHWARTZ
   Thresh                                   ... 2.500e-11
   Tcut                                     ... 2.500e-12
   Tpresel                                  ... 2.500e-12 
Coulomb Range Separation                    ... NOT USED
Exchange Range Separation                   ... Long Range
   Mu parameter                             ... 3.000e-01
   Scaling (regular/separated)              ... 1.500e-01 8.500e-01
Multipole approximations                    ... NOT USED
Finite Nucleus Model                        ... NOT USED
CABS basis                                  ... NOT available
Auxiliary Coulomb fitting basis             ... AVAILABLE
   # of basis functions in Aux-J            ...    191
   # of shells in Aux-J                     ...     65
   Maximum angular momentum in Aux-J        ...      4
Auxiliary J/K fitting basis                 ... NOT available
Auxiliary Correlation fitting basis         ... NOT available
Auxiliary 'external' fitting basis          ... NOT available

Checking pre-screening integrals            ... done (  0.0 sec) Dimension = 68
Check shell pair data                       ... done (  0.0 sec)
Shell pair information
Shell pair cut-off parameter TPreSel        ...   2.5e-12
Total number of shell pairs                 ...      2346
Shell pairs after pre-screening             ...      2329
Total number of primitive shell pairs       ...      5434
Primitive shell pairs kept                  ...      4824
          la=0 lb=0:    455 shell pairs
          la=1 lb=0:    656 shell pairs
          la=1 lb=1:    253 shell pairs
          la=2 lb=0:    387 shell pairs
          la=2 lb=1:    286 shell pairs
          la=2 lb=2:     91 shell pairs
          la=3 lb=0:     90 shell pairs
          la=3 lb=1:     66 shell pairs
          la=3 lb=2:     39 shell pairs
          la=3 lb=3:      6 shell pairs

Calculating one electron integrals          ... done (  0.0 sec)
Calculating RI/J V-Matrix + Cholesky decomp.... done (  0.0 sec)
Calculating Nuclear repulsion               ... done (  0.0 sec) ENN=     67.856088609097 Eh

Diagonalization of the overlap matrix:
Smallest eigenvalue                        ... 1.991e-05
Time for diagonalization                   ...    0.003 sec
Threshold for overlap eigenvalues          ... 1.000e-07
Number of eigenvalues below threshold      ... 0
Time for construction of square roots      ...    0.003 sec
Total time needed                          ...    0.008 sec

-------------------
DFT GRID GENERATION
-------------------

General Integration Accuracy     IntAcc      ... 4.388
Radial Grid Type                 RadialGrid  ... OptM3 with GC (2021)
Angular Grid (max. ang.)         AngularGrid ... 4 (Lebedev-302)
Angular grid pruning method      GridPruning ... 4 (adaptive)
Weight generation scheme         WeightScheme... mBecke (2022)
Basis function cutoff            BFCut       ... 1.0000e-11
Integration weight cutoff        WCut        ... 1.0000e-14
Partially contracted basis set               ... off
Rotationally invariant grid construction     ... off
Angular grids for H and He will be reduced by one unit
Diffuse basis detected: some atoms will have their outermost
                        angular grid increased by 1.

Total number of grid points                  ...    33124
Total number of batches                      ...      521
Average number of points per batch           ...       63
Average number of grid points per atom       ...     4732

--------------------
COSX GRID GENERATION
--------------------

GRIDX 1
-------
General Integration Accuracy     IntAcc      ... 3.816
Radial Grid Type                 RadialGrid  ... OptM3 with GC (2021)
Angular Grid (max. ang.)         AngularGrid ... 1 (Lebedev-50)
Angular grid pruning method      GridPruning ... 4 (adaptive)
Weight generation scheme         WeightScheme... mBecke (2022)
Basis function cutoff            BFCut       ... 1.0000e-11
Integration weight cutoff        WCut        ... 1.0000e-14
Partially contracted basis set               ... on
Rotationally invariant grid construction     ... off
Angular grids for H and He will be reduced by one unit
Diffuse basis detected: some atoms will have their outermost
                        angular grid increased by 1.

Total number of grid points                  ...     4181
Total number of batches                      ...       37
Average number of points per batch           ...      113
Average number of grid points per atom       ...      597
UseSFitting                                  ... on

GRIDX 2
-------
General Integration Accuracy     IntAcc      ... 4.020
Radial Grid Type                 RadialGrid  ... OptM3 with GC (2021)
Angular Grid (max. ang.)         AngularGrid ... 2 (Lebedev-110)
Angular grid pruning method      GridPruning ... 4 (adaptive)
Weight generation scheme         WeightScheme... mBecke (2022)
Basis function cutoff            BFCut       ... 1.0000e-11
Integration weight cutoff        WCut        ... 1.0000e-14
Partially contracted basis set               ... on
Rotationally invariant grid construction     ... off
Angular grids for H and He will be reduced by one unit
Diffuse basis detected: some atoms will have their outermost
                        angular grid increased by 1.

Total number of grid points                  ...    10280
Total number of batches                      ...       84
Average number of points per batch           ...      122
Average number of grid points per atom       ...     1469
UseSFitting                                  ... on

GRIDX 3
-------
General Integration Accuracy     IntAcc      ... 4.338
Radial Grid Type                 RadialGrid  ... OptM3 with GC (2021)
Angular Grid (max. ang.)         AngularGrid ... 3 (Lebedev-194)
Angular grid pruning method      GridPruning ... 4 (adaptive)
Weight generation scheme         WeightScheme... mBecke (2022)
Basis function cutoff            BFCut       ... 1.0000e-11
Integration weight cutoff        WCut        ... 1.0000e-14
Partially contracted basis set               ... on
Rotationally invariant grid construction     ... off
Angular grids for H and He will be reduced by one unit
Diffuse basis detected: some atoms will have their outermost
                        angular grid increased by 1.

Total number of grid points                  ...    23139
Total number of batches                      ...      184
Average number of points per batch           ...      125
Average number of grid points per atom       ...     3306
UseSFitting                                  ... on
Initializing property integral containers    ... done (  0.0 sec)

SHARK setup successfully completed in   0.4 seconds

Maximum memory used throughout the entire STARTUP-calculation: 13.8 MB
[1741607100.780123] [ohm:3105271:0]        ib_iface.c:1059 UCX  ERROR ibv_create_cq(cqe=256) failed: Connection timed out
[1741607100.788008] [ohm:3105274:0]        ib_iface.c:1059 UCX  ERROR ibv_create_cq(cqe=256) failed: Connection timed out
[1741607100.789357] [ohm:3105273:0]        ib_iface.c:1059 UCX  ERROR ibv_create_cq(cqe=256) failed: Connection timed out
[1741607100.791616] [ohm:3105278:0]        ib_iface.c:1059 UCX  ERROR ibv_create_cq(cqe=256) failed: Connection timed out
[1741607100.792434] [ohm:3105265:0]        ib_iface.c:1059 UCX  ERROR ibv_create_cq(cqe=256) failed: Connection timed out
[1741607100.798277] [ohm:3105272:0]        ib_iface.c:1059 UCX  ERROR ibv_create_cq(cqe=256) failed: Connection timed out
[1741607100.802744] [ohm:3105266:0]        ib_iface.c:1059 UCX  ERROR ibv_create_cq(cqe=256) failed: Connection timed out
[1741607100.811541] [ohm:3105264:0]        ib_iface.c:1059 UCX  ERROR ibv_create_cq(cqe=256) failed: Connection timed out
[1741607100.821298] [ohm:3105263:0]        ib_iface.c:1059 UCX  ERROR ibv_create_cq(cqe=256) failed: Connection timed out
[1741607100.827302] [ohm:3105262:0]        ib_iface.c:1059 UCX  ERROR ibv_create_cq(cqe=256) failed: Connection timed out
[1741607100.852384] [ohm:3105277:0]        ib_iface.c:1059 UCX  ERROR ibv_create_cq(cqe=256) failed: Connection timed out
[1741607100.853693] [ohm:3105275:0]        ib_iface.c:1059 UCX  ERROR ibv_create_cq(cqe=256) failed: Connection timed out
[1741607100.853725] [ohm:3105299:0]        ib_iface.c:1059 UCX  ERROR ibv_create_cq(cqe=256) failed: Connection timed out
[1741607100.859230] [ohm:3105284:0]        ib_iface.c:1059 UCX  ERROR ibv_create_cq(cqe=256) failed: Connection timed out
[1741607100.859873] [ohm:3105298:0]        ib_iface.c:1059 UCX  ERROR ibv_create_cq(cqe=256) failed: Connection timed out
[1741607100.901836] [ohm:3105323:0]        ib_iface.c:1059 UCX  ERROR ibv_create_cq(cqe=256) failed: Connection timed out
[1741607100.916150] [ohm:3105270:0]        ib_iface.c:1059 UCX  ERROR ibv_create_cq(cqe=256) failed: Connection timed out
[1741607100.922371] [ohm:3105276:0]        ib_iface.c:1059 UCX  ERROR ibv_create_cq(cqe=256) failed: Connection timed out
[1741607100.935125] [ohm:3105290:0]        ib_iface.c:1059 UCX  ERROR ibv_create_cq(cqe=256) failed: Connection timed out
[1741607100.935373] [ohm:3105279:0]        ib_iface.c:1059 UCX  ERROR ibv_create_cq(cqe=256) failed: Connection timed out
[1741607100.939650] [ohm:3105269:0]        ib_iface.c:1059 UCX  ERROR ibv_create_cq(cqe=256) failed: Connection timed out
[1741607100.943290] [ohm:3105381:0]        ib_iface.c:1059 UCX  ERROR ibv_create_cq(cqe=256) failed: Connection timed out
[1741607100.949387] [ohm:3105291:0]        ib_iface.c:1059 UCX  ERROR ibv_create_cq(cqe=256) failed: Connection timed out
[1741607100.949836] [ohm:3105268:0]        ib_iface.c:1059 UCX  ERROR ibv_create_cq(cqe=256) failed: Connection timed out
[1741607100.952178] [ohm:3105280:0]        ib_iface.c:1059 UCX  ERROR ibv_create_cq(cqe=256) failed: Connection timed out
[1741607100.968962] [ohm:3105286:0]        ib_iface.c:1059 UCX  ERROR ibv_create_cq(cqe=256) failed: Connection timed out
[1741607100.971156] [ohm:3105267:0]        ib_iface.c:1059 UCX  ERROR ibv_create_cq(cqe=256) failed: Connection timed out
[1741607100.971748] [ohm:3105393:0]        ib_iface.c:1059 UCX  ERROR ibv_create_cq(cqe=256) failed: Connection timed out
[1741607100.973865] [ohm:3105281:0]        ib_iface.c:1059 UCX  ERROR ibv_create_cq(cqe=256) failed: Connection timed out
[1741607100.974359] [ohm:3105344:0]        ib_iface.c:1059 UCX  ERROR ibv_create_cq(cqe=256) failed: Connection timed out
[1741607100.979930] [ohm:3105408:0]        ib_iface.c:1059 UCX  ERROR ibv_create_cq(cqe=256) failed: Connection timed out
[1741607100.982013] [ohm:3105317:0]        ib_iface.c:1059 UCX  ERROR ibv_create_cq(cqe=256) failed: Connection timed out
[1741607100.989396] [ohm:3105377:0]        ib_iface.c:1059 UCX  ERROR ibv_create_cq(cqe=256) failed: Connection timed out
[1741607101.010837] [ohm:3105390:0]        ib_iface.c:1059 UCX  ERROR ibv_create_cq(cqe=256) failed: Connection timed out
[1741607101.014722] [ohm:3105351:0]        ib_iface.c:1059 UCX  ERROR ibv_create_cq(cqe=256) failed: Connection timed out
[1741607101.016866] [ohm:3105336:0]        ib_iface.c:1059 UCX  ERROR ibv_create_cq(cqe=256) failed: Connection timed out
[1741607101.017210] [ohm:3105335:0]        ib_iface.c:1059 UCX  ERROR ibv_create_cq(cqe=256) failed: Connection timed out
[1741607101.034064] [ohm:3105300:0]        ib_iface.c:1059 UCX  ERROR ibv_create_cq(cqe=256) failed: Connection timed out
[1741607101.037158] [ohm:3105363:0]        ib_iface.c:1059 UCX  ERROR ibv_create_cq(cqe=256) failed: Connection timed out
[1741607101.039883] [ohm:3105341:0]        ib_iface.c:1059 UCX  ERROR ibv_create_cq(cqe=256) failed: Connection timed out
[1741607101.041063] [ohm:3105329:0]        ib_iface.c:1059 UCX  ERROR ibv_create_cq(cqe=256) failed: Connection timed out
[1741607101.043683] [ohm:3105372:0]        ib_iface.c:1059 UCX  ERROR ibv_create_cq(cqe=256) failed: Connection timed out
[1741607101.046372] [ohm:3105367:0]        ib_iface.c:1059 UCX  ERROR ibv_create_cq(cqe=256) failed: Connection timed out
[1741607101.048858] [ohm:3105331:0]        ib_iface.c:1059 UCX  ERROR ibv_create_cq(cqe=256) failed: Connection timed out
[1741607101.049396] [ohm:3105327:0]        ib_iface.c:1059 UCX  ERROR ibv_create_cq(cqe=256) failed: Connection timed out
[1741607101.050766] [ohm:3105297:0]        ib_iface.c:1059 UCX  ERROR ibv_create_cq(cqe=256) failed: Connection timed out
[1741607101.055042] [ohm:3105415:0]        ib_iface.c:1059 UCX  ERROR ibv_create_cq(cqe=256) failed: Connection timed out
[1741607101.060655] [ohm:3105403:0]        ib_iface.c:1059 UCX  ERROR ibv_create_cq(cqe=256) failed: Connection timed out
[1741607101.065833] [ohm:3105407:0]        ib_iface.c:1059 UCX  ERROR ibv_create_cq(cqe=256) failed: Connection timed out
[1741607101.065830] [ohm:3105332:0]        ib_iface.c:1059 UCX  ERROR ibv_create_cq(cqe=256) failed: Connection timed out
[1741607101.071794] [ohm:3105362:0]        ib_iface.c:1059 UCX  ERROR ibv_create_cq(cqe=256) failed: Connection timed out
[1741607101.075227] [ohm:3105319:0]        ib_iface.c:1059 UCX  ERROR ibv_create_cq(cqe=256) failed: Connection timed out
[1741607101.084120] [ohm:3105282:0]        ib_iface.c:1059 UCX  ERROR ibv_create_cq(cqe=256) failed: Connection timed out
[1741607101.084167] [ohm:3105306:0]        ib_iface.c:1059 UCX  ERROR ibv_create_cq(cqe=256) failed: Connection timed out
[1741607101.084283] [ohm:3105376:0]        ib_iface.c:1059 UCX  ERROR ibv_create_cq(cqe=256) failed: Connection timed out
[1741607101.084370] [ohm:3105308:0]        ib_iface.c:1059 UCX  ERROR ibv_create_cq(cqe=256) failed: Connection timed out
[1741607101.087393] [ohm:3105353:0]        ib_iface.c:1059 UCX  ERROR ibv_create_cq(cqe=256) failed: Connection timed out
[1741607101.088385] [ohm:3105358:0]        ib_iface.c:1059 UCX  ERROR ibv_create_cq(cqe=256) failed: Connection timed out
[1741607101.093348] [ohm:3105370:0]        ib_iface.c:1059 UCX  ERROR ibv_create_cq(cqe=256) failed: Connection timed out
[1741607101.097525] [ohm:3105339:0]        ib_iface.c:1059 UCX  ERROR ibv_create_cq(cqe=256) failed: Connection timed out
[1741607101.097749] [ohm:3105400:0]        ib_iface.c:1059 UCX  ERROR ibv_create_cq(cqe=256) failed: Connection timed out
[1741607101.098515] [ohm:3105345:0]        ib_iface.c:1059 UCX  ERROR ibv_create_cq(cqe=256) failed: Connection timed out
[1741607101.098846] [ohm:3105302:0]        ib_iface.c:1059 UCX  ERROR ibv_create_cq(cqe=256) failed: Connection timed out
[1741607101.099227] [ohm:3105383:0]        ib_iface.c:1059 UCX  ERROR ibv_create_cq(cqe=256) failed: Connection timed out


           ************************************************************
           *        Program running with 64 parallel MPI-processes    *
           *              working on a common directory               *
           ************************************************************
-------------------------------------------------------------------------------
                                 ORCA GUESS
                   Start orbitals & Density for SCF / CASSCF
-------------------------------------------------------------------------------

------------
SCF SETTINGS
------------
Hamiltonian:
 Density Functional     Method          .... DFT(GTOs)
  Functional kind                       .... Exchange-Correlation
  Functional name                       .... wB97M-V exchange-correlation functional
  Functional family                     .... Hybrid MGGA
  Functional refs                              
    [ 0] N. Mardirossian and M. Head-Gordon.,  J. Chem. Phys. 144, 214110 (2016), doi: 10.1063/1.4952647
  Fraction of HF Exchange (short range) .... 0.1500
  Fraction of HF Exchange (long range)  .... 1.0000
  Range separation parameter mu         .... 0.3000
  Functional external parameters        .... 17
    Parameter  0 _cx00      =  8.500000e-01 : u^00 coefficient for exchange
    Parameter  1 _cx01      =  1.007000e+00 : u^01 coefficient for exchange
    Parameter  2 _cx10      =  2.590000e-01 : u^10 coefficient for exchange
    Parameter  3 _css00     =  4.430000e-01 : u^00 coefficient for same-spin correlation
    Parameter  4 _css04     = -1.437000e+00 : u^04 coefficient for same-spin correlation
    Parameter  5 _css10     = -4.535000e+00 : u^10 coefficient for same-spin correlation
    Parameter  6 _css20     = -3.390000e+00 : u^20 coefficient for same-spin correlation
    Parameter  7 _css43     =  4.278000e+00 : u^43 coefficient for same-spin correlation
    Parameter  8 _cos00     =  1.000000e+00 : u^00 coefficient for opposite-spin correlation
    Parameter  9 _cos10     =  1.358000e+00 : u^10 coefficient for opposite-spin correlation
    Parameter 10 _cos20     =  2.924000e+00 : u^20 coefficient for opposite-spin correlation
    Parameter 11 _cos21     = -8.812000e+00 : u^21 coefficient for opposite-spin correlation
    Parameter 12 _cos60     = -1.390000e+00 : u^60 coefficient for opposite-spin correlation
    Parameter 13 _cos61     =  9.142000e+00 : u^61 coefficient for opposite-spin correlation
    Parameter 14 _alpha     =  1.000000e+00 : fraction of HF exchange
    Parameter 15 _beta      = -8.500000e-01 : fraction of short-range exchange
    Parameter 16 _omega     =  3.000000e-01 : range-separation constant
 Long-range corrected/Screened/Range-Separated Hybrid DFT is turned on
   Amount of maximum screened exact exchange              ....  0.850000
   Range separation parameter mu (erf(mu*r12)/r12)        ....  0.300000
 RI-approximation to the Coulomb term is turned on
   Number of AuxJ basis functions       .... 191
   RIJ-COSX (HFX calculated with COS-X)).... on


General Settings:
 Integral files         IntName         .... orca
 Hartree-Fock type      HFTyp           .... UHF
 Total Charge           Charge          ....    0
 Multiplicity           Mult            ....    3
 Number of Electrons    NEL             ....   24
 Basis Dimension        Dim             ....  182
 Nuclear Repulsion      ENuc            ....     67.8560886091 Eh

Convergence Acceleration:
 AO-DIIS                CNVDIIS         .... on
   Start iteration      DIISMaxIt       ....    12
   Startup error        DIISStart       ....  0.200000
   # of expansion vecs  DIISMaxEq       ....     5
   Bias factor          DIISBfac        ....   1.050
   Max. coefficient     DIISMaxC        ....  10.000
 MO-DIIS                CNVKDIIS        .... off
 Trust-Rad. Augm. Hess. CNVTRAH         .... auto
   Auto Start mean grad. ratio tolernc. ....  1.125000
   Auto Start start iteration           ....    50
   Auto Start num. interpolation iter.  ....    10
   Max. Number of Micro iterations      ....    24
   Max. Number of Macro iterations      .... Maxiter - #DIIS iter
   Number of Davidson start vectors     ....     2
   Converg. threshold    (grad. norm)   ....   1.000e-05
   Grad. Scal. Fac. for Micro threshold ....   0.100
   Minimum threshold for Micro iter.    ....   1.000e-02
   NR start threshold (gradient norm)   ....   1.000e-04
   Initial trust radius                 ....   0.400
   Minimum AH scaling param. (alpha)    ....   1.000
   Maximum AH scaling param. (alpha)    .... 1000.000
   Quad. conv. algorithm                .... NR
   White noise on init. David. guess    .... on
   Maximum white noise                  ....   0.010
   Pseudo random numbers                .... off
   Inactive MOs                         .... canonical
   Orbital update algorithm             .... Taylor
   Preconditioner                       .... Diag
   Full preconditioner red. dimension   ....   250
 SOSCF                  CNVSOSCF        .... on
   Start iteration      SOSCFMaxIt      ....   150
   Startup grad/error   SOSCFStart      ....  0.003300
   Hessian update       SOSCFHessUp     .... L-BFGS
 Level Shifting         CNVShift        .... on
   Level shift para.    LevelShift      ....    0.2500
   Turn off err/grad.   ShiftErr        ....    0.0010
 Zerner damping         CNVZerner       .... off
 Static damping         CNVDamp         .... on
   Fraction old density DampFac         ....    0.7000
   Max. Damping (<1)    DampMax         ....    0.9800
   Min. Damping (>=0)   DampMin         ....    0.0000
   Turn off err/grad.   DampErr         ....    0.1000

SCF Procedure:
 Maximum # iterations   MaxIter         ....   125
 SCF integral mode      SCFMode         .... Direct
   Integral package                     .... SHARK and LIBINT hybrid scheme
 Reset frequency        DirectResetFreq ....    20
 Integral Threshold     Thresh          ....  2.500e-11 Eh
 Primitive CutOff       TCut            ....  2.500e-12 Eh

Convergence Tolerance:
 Convergence Check Mode ConvCheckMode   .... Total+1el-Energy
 Convergence forced     ConvForced      .... 1
 Energy Change          TolE            ....  1.000e-08 Eh
 1-El. energy change                    ....  1.000e-05 Eh
 Orbital Gradient       TolG            ....  1.000e-05
 Orbital Rotation angle TolX            ....  1.000e-05
 DIIS Error             TolErr          ....  5.000e-07

------------------------------
INITIAL GUESS: MODEL POTENTIAL
------------------------------
Loading Hartree-Fock densities                     ... done
Calculating cut-offs                               ... done
Initializing the effective Hamiltonian             ... done
Setting up the integral package (SHARK)            ... done
Starting the Coulomb interaction                   ... done (   0.0 sec)
Making the grid                                    ... done (   0.0 sec)
Mapping shells                                     ... done
Starting the XC term evaluation                    ... done (   0.0 sec)
  promolecular density results
     # of electrons  =     23.997842133
     EX              =    -19.455542070
     EC              =     -0.764564508
     EX+EC           =    -20.220106578
Transforming the Hamiltonian                       ... done (   0.0 sec)
Diagonalizing the Hamiltonian                      ... done (   0.0 sec)
Back transforming the eigenvectors                 ... done (   0.0 sec)
Now organizing SCF variables                       ... done
                      ------------------
                      INITIAL GUESS DONE (   0.1 sec)
                      ------------------
             **** ENERGY FILE WAS UPDATED (orca.en.tmp) ****
Finished Guess after   1.7 sec
Maximum memory used throughout the entire GUESS-calculation: 9.5 MB
[1741607102.869505] [ohm:3105608:0]        ib_iface.c:1059 UCX  ERROR ibv_create_cq(cqe=256) failed: Connection timed out
[1741607102.887871] [ohm:3105612:0]        ib_iface.c:1059 UCX  ERROR ibv_create_cq(cqe=256) failed: Connection timed out
[1741607102.888606] [ohm:3105610:0]        ib_iface.c:1059 UCX  ERROR ibv_create_cq(cqe=256) failed: Connection timed out
[1741607102.893680] [ohm:3105609:0]        ib_iface.c:1059 UCX  ERROR ibv_create_cq(cqe=256) failed: Connection timed out
[1741607102.923684] [ohm:3105611:0]        ib_iface.c:1059 UCX  ERROR ibv_create_cq(cqe=256) failed: Connection timed out
[1741607102.923680] [ohm:3105616:0]        ib_iface.c:1059 UCX  ERROR ibv_create_cq(cqe=256) failed: Connection timed out
[1741607102.924057] [ohm:3105613:0]        ib_iface.c:1059 UCX  ERROR ibv_create_cq(cqe=256) failed: Connection timed out
[1741607102.977800] [ohm:3105615:0]        ib_iface.c:1059 UCX  ERROR ibv_create_cq(cqe=256) failed: Connection timed out
[1741607102.998856] [ohm:3105614:0]        ib_iface.c:1059 UCX  ERROR ibv_create_cq(cqe=256) failed: Connection timed out
[1741607103.003003] [ohm:3105637:0]        ib_iface.c:1059 UCX  ERROR ibv_create_cq(cqe=256) failed: Connection timed out
[1741607103.009603] [ohm:3105669:0]        ib_iface.c:1059 UCX  ERROR ibv_create_cq(cqe=256) failed: Connection timed out
[1741607103.010112] [ohm:3105633:0]        ib_iface.c:1059 UCX  ERROR ibv_create_cq(cqe=256) failed: Connection timed out
[1741607103.021249] [ohm:3105651:0]        ib_iface.c:1059 UCX  ERROR ibv_create_cq(cqe=256) failed: Connection timed out
[1741607103.026958] [ohm:3105645:0]        ib_iface.c:1059 UCX  ERROR ibv_create_cq(cqe=256) failed: Connection timed out
[1741607103.029008] [ohm:3105672:0]        ib_iface.c:1059 UCX  ERROR ibv_create_cq(cqe=256) failed: Connection timed out
[1741607103.029919] [ohm:3105632:0]        ib_iface.c:1059 UCX  ERROR ibv_create_cq(cqe=256) failed: Connection timed out
[1741607103.037490] [ohm:3105618:0]        ib_iface.c:1059 UCX  ERROR ibv_create_cq(cqe=256) failed: Connection timed out
[1741607103.038867] [ohm:3105620:0]        ib_iface.c:1059 UCX  ERROR ibv_create_cq(cqe=256) failed: Connection timed out
[1741607103.048783] [ohm:3105635:0]        ib_iface.c:1059 UCX  ERROR ibv_create_cq(cqe=256) failed: Connection timed out
[1741607103.056849] [ohm:3105619:0]        ib_iface.c:1059 UCX  ERROR ibv_create_cq(cqe=256) failed: Connection timed out
[1741607103.072228] [ohm:3105621:0]        ib_iface.c:1059 UCX  ERROR ibv_create_cq(cqe=256) failed: Connection timed out
[1741607103.075693] [ohm:3105731:0]        ib_iface.c:1059 UCX  ERROR ibv_create_cq(cqe=256) failed: Connection timed out
[1741607103.090133] [ohm:3105736:0]        ib_iface.c:1059 UCX  ERROR ibv_create_cq(cqe=256) failed: Connection timed out
[1741607103.092404] [ohm:3105634:0]        ib_iface.c:1059 UCX  ERROR ibv_create_cq(cqe=256) failed: Connection timed out
[1741607103.092927] [ohm:3105636:0]        ib_iface.c:1059 UCX  ERROR ibv_create_cq(cqe=256) failed: Connection timed out
[1741607103.100151] [ohm:3105667:0]        ib_iface.c:1059 UCX  ERROR ibv_create_cq(cqe=256) failed: Connection timed out
[1741607103.107467] [ohm:3105639:0]        ib_iface.c:1059 UCX  ERROR ibv_create_cq(cqe=256) failed: Connection timed out
[1741607103.109469] [ohm:3105652:0]        ib_iface.c:1059 UCX  ERROR ibv_create_cq(cqe=256) failed: Connection timed out
[1741607103.110286] [ohm:3105617:0]        ib_iface.c:1059 UCX  ERROR ibv_create_cq(cqe=256) failed: Connection timed out
[1741607103.110666] [ohm:3105687:0]        ib_iface.c:1059 UCX  ERROR ibv_create_cq(cqe=256) failed: Connection timed out
[1741607103.120636] [ohm:3105726:0]        ib_iface.c:1059 UCX  ERROR ibv_create_cq(cqe=256) failed: Connection timed out
[1741607103.121267] [ohm:3105753:0]        ib_iface.c:1059 UCX  ERROR ibv_create_cq(cqe=256) failed: Connection timed out
[1741607103.121843] [ohm:3105748:0]        ib_iface.c:1059 UCX  ERROR ibv_create_cq(cqe=256) failed: Connection timed out
[1741607103.129505] [ohm:3105664:0]        ib_iface.c:1059 UCX  ERROR ibv_create_cq(cqe=256) failed: Connection timed out
[1741607103.130917] [ohm:3105671:0]        ib_iface.c:1059 UCX  ERROR ibv_create_cq(cqe=256) failed: Connection timed out
[1741607103.132965] [ohm:3105662:0]        ib_iface.c:1059 UCX  ERROR ibv_create_cq(cqe=256) failed: Connection timed out
[1741607103.138410] [ohm:3105702:0]        ib_iface.c:1059 UCX  ERROR ibv_create_cq(cqe=256) failed: Connection timed out
[1741607103.144035] [ohm:3105666:0]        ib_iface.c:1059 UCX  ERROR ibv_create_cq(cqe=256) failed: Connection timed out
[1741607103.151658] [ohm:3105665:0]        ib_iface.c:1059 UCX  ERROR ibv_create_cq(cqe=256) failed: Connection timed out
[1741607103.155119] [ohm:3105718:0]        ib_iface.c:1059 UCX  ERROR ibv_create_cq(cqe=256) failed: Connection timed out
[1741607103.171704] [ohm:3105676:0]        ib_iface.c:1059 UCX  ERROR ibv_create_cq(cqe=256) failed: Connection timed out
[1741607103.172822] [ohm:3105660:0]        ib_iface.c:1059 UCX  ERROR ibv_create_cq(cqe=256) failed: Connection timed out
[1741607103.180809] [ohm:3105704:0]        ib_iface.c:1059 UCX  ERROR ibv_create_cq(cqe=256) failed: Connection timed out
[1741607103.181432] [ohm:3105694:0]        ib_iface.c:1059 UCX  ERROR ibv_create_cq(cqe=256) failed: Connection timed out
[1741607103.181443] [ohm:3105717:0]        ib_iface.c:1059 UCX  ERROR ibv_create_cq(cqe=256) failed: Connection timed out
[1741607103.184079] [ohm:3105680:0]        ib_iface.c:1059 UCX  ERROR ibv_create_cq(cqe=256) failed: Connection timed out
[1741607103.191223] [ohm:3105699:0]        ib_iface.c:1059 UCX  ERROR ibv_create_cq(cqe=256) failed: Connection timed out
[1741607103.192307] [ohm:3105739:0]        ib_iface.c:1059 UCX  ERROR ibv_create_cq(cqe=256) failed: Connection timed out
[1741607103.192617] [ohm:3105642:0]        ib_iface.c:1059 UCX  ERROR ibv_create_cq(cqe=256) failed: Connection timed out
[1741607103.200193] [ohm:3105673:0]        ib_iface.c:1059 UCX  ERROR ibv_create_cq(cqe=256) failed: Connection timed out
[1741607103.201803] [ohm:3105742:0]        ib_iface.c:1059 UCX  ERROR ibv_create_cq(cqe=256) failed: Connection timed out
[1741607103.204627] [ohm:3105744:0]        ib_iface.c:1059 UCX  ERROR ibv_create_cq(cqe=256) failed: Connection timed out
[1741607103.206005] [ohm:3105657:0]        ib_iface.c:1059 UCX  ERROR ibv_create_cq(cqe=256) failed: Connection timed out
[1741607103.206605] [ohm:3105710:0]        ib_iface.c:1059 UCX  ERROR ibv_create_cq(cqe=256) failed: Connection timed out
[1741607103.207529] [ohm:3105696:0]        ib_iface.c:1059 UCX  ERROR ibv_create_cq(cqe=256) failed: Connection timed out
[1741607103.209059] [ohm:3105709:0]        ib_iface.c:1059 UCX  ERROR ibv_create_cq(cqe=256) failed: Connection timed out
[1741607103.211739] [ohm:3105692:0]        ib_iface.c:1059 UCX  ERROR ibv_create_cq(cqe=256) failed: Connection timed out
[1741607103.214839] [ohm:3105668:0]        ib_iface.c:1059 UCX  ERROR ibv_create_cq(cqe=256) failed: Connection timed out
[1741607103.214826] [ohm:3105679:0]        ib_iface.c:1059 UCX  ERROR ibv_create_cq(cqe=256) failed: Connection timed out
[1741607103.215815] [ohm:3105689:0]        ib_iface.c:1059 UCX  ERROR ibv_create_cq(cqe=256) failed: Connection timed out
[1741607103.216196] [ohm:3105732:0]        ib_iface.c:1059 UCX  ERROR ibv_create_cq(cqe=256) failed: Connection timed out
[1741607103.217264] [ohm:3105725:0]        ib_iface.c:1059 UCX  ERROR ibv_create_cq(cqe=256) failed: Connection timed out
[1741607103.217695] [ohm:3105670:0]        ib_iface.c:1059 UCX  ERROR ibv_create_cq(cqe=256) failed: Connection timed out
[1741607103.218910] [ohm:3105758:0]        ib_iface.c:1059 UCX  ERROR ibv_create_cq(cqe=256) failed: Connection timed out


           ************************************************************
           *        Program running with 64 parallel MPI-processes    *
           *              working on a common directory               *
           ************************************************************

-------------------------------------------------------------------------------------------
                                      ORCA LEAN-SCF
                              memory conserving SCF solver
-------------------------------------------------------------------------------------------

----------------------------------------D-I-I-S--------------------------------------------
Iteration    Energy (Eh)           Delta-E    RMSDP     MaxDP     DIISErr   Damp  Time(sec)
-------------------------------------------------------------------------------------------
               ***  Starting incremental Fock matrix formation  ***
    1    -153.6800614895556123     0.00e+00  7.85e-04  1.87e-02  9.30e-02  0.700   0.3
    2    -153.7116844695009945    -3.16e-02  6.81e-04  1.72e-02  5.88e-02  0.700   0.3
                               ***Turning on AO-DIIS***
    3    -153.7287850330340007    -1.71e-02  5.66e-04  2.28e-02  3.72e-02  0.700   0.3
    4    -153.7395566854822277    -1.08e-02  1.46e-03  6.34e-02  3.12e-02  0.000   0.3
    5    -153.7659352157983221    -2.64e-02  1.97e-04  7.86e-03  1.33e-02  0.000   0.3
    6    -153.7670384640443331    -1.10e-03  1.50e-04  4.47e-03  7.66e-03  0.000   0.3
    7    -153.7676682827405443    -6.30e-04  9.55e-05  2.66e-03  6.21e-03  0.000   0.3
                              *** Initializing SOSCF ***
---------------------------------------S-O-S-C-F--------------------------------------
Iteration    Energy (Eh)           Delta-E    RMSDP     MaxDP     MaxGrad    Time(sec)
--------------------------------------------------------------------------------------
    8    -153.7679850431714499    -3.17e-04  5.69e-05  1.52e-03  2.93e-03     0.4
               *** Restarting incremental Fock matrix formation ***
    9    -153.7680900020583863    -1.05e-04  2.94e-05  7.21e-04  2.09e-03     0.3
   10    -153.7681175981436468    -2.76e-05  5.38e-05  1.44e-03  8.48e-04     0.3
   11    -153.7681366352011310    -1.90e-05  1.88e-05  6.74e-04  5.40e-04     0.3
   12    -153.7681421323925406    -5.50e-06  2.18e-05  7.96e-04  5.45e-04     0.3
   13    -153.7681475362155652    -5.40e-06  6.59e-05  3.06e-03  5.31e-04     0.3
   14    -153.7681610101688534    -1.35e-05  7.54e-05  3.75e-03  4.17e-04     0.3
   15    -153.7681732021070502    -1.22e-05  6.83e-05  3.16e-03  4.21e-04     2.7
   16    -153.7681812516034370    -8.05e-06  2.31e-05  6.47e-04  2.24e-04     0.3
   17    -153.7681831330760360    -1.88e-06  5.90e-06  1.96e-04  1.02e-04     0.3
   18    -153.7681833367064996    -2.04e-07  2.17e-06  9.69e-05  4.03e-05     0.3
   19    -153.7681833614311699    -2.47e-08  8.05e-07  2.22e-05  2.03e-05     0.3
   20    -153.7681833655449850    -4.11e-09  5.54e-07  1.96e-05  4.93e-06     0.3
                 **** Energy Check signals convergence ****

               *****************************************************
               *                     SUCCESS                       *
               *           SCF CONVERGED AFTER  20 CYCLES          *
               *****************************************************

Recomputing exchange energy using gridx3       ... done (    0.174 sec)
Old exchange energy                            :     -6.192434989 Eh
New exchange energy                            :     -6.192428116 Eh
Exchange energy change after final integration :      0.000006873 Eh
Total energy after final integration           :   -153.768176493 Eh
             **** ENERGY FILE WAS UPDATED (orca.en.tmp) ****

----------------
TOTAL SCF ENERGY
----------------

Total Energy       :       -153.76817649256910 Eh           -4184.24481 eV

Components:
Nuclear Repulsion  :         67.85608860909703 Eh            1846.45804 eV
Electronic Energy  :       -221.62427197464200 Eh           -6030.70304 eV
One Electron Energy:       -342.29709628867386 Eh           -9314.37752 eV
Two Electron Energy:        120.67282431403187 Eh            3283.67449 eV

Virial components:
Potential Energy   :       -307.04809947990248 Eh           -8355.20356 eV
Kinetic Energy     :        153.27992298733335 Eh            4170.95875 eV
Virial Ratio       :          2.00318537154586

DFT components:
N(Alpha)           :       12.999991663803 electrons
N(Beta)            :       10.999981827030 electrons
N(Total)           :       23.999973490833 electrons
E(XC)              :      -14.687634493851 Eh       

---------------
SCF CONVERGENCE
---------------

  Last Energy change         ...    4.1138e-09  Tolerance :   1.0000e-08
  Last MAX-Density change    ...    1.9598e-05  Tolerance :   1.0000e-07
  Last RMS-Density change    ...    5.5411e-07  Tolerance :   5.0000e-09
  Last DIIS Error            ...    2.9329e-03  Tolerance :   5.0000e-07
  Last Orbital Gradient      ...    4.9255e-06  Tolerance :   1.0000e-05
  Last Orbital Rotation      ...    1.0528e-04  Tolerance :   1.0000e-05


----------------------
UHF SPIN CONTAMINATION
----------------------

Warning: in a DFT calculation there is little theoretical justification to 
         calculate <S**2> as in Hartree-Fock theory. We will do it anyways
         but you should keep in mind that the values have only limited relevance

Expectation value of <S**2>     :     2.009229
Ideal value S*(S+1) for S=1.0   :     2.000000
Deviation                       :     0.009229

----------------
ORBITAL ENERGIES
----------------
                 SPIN UP ORBITALS
  NO   OCC          E(Eh)            E(eV) 
   0   1.0000     -19.387603      -527.5635 
   1   1.0000     -10.417506      -283.4748 
   2   1.0000     -10.362527      -281.9787 
   3   1.0000      -1.149915       -31.2908 
   4   1.0000      -0.890474       -24.2310 
   5   1.0000      -0.734274       -19.9806 
   6   1.0000      -0.613326       -16.6895 
   7   1.0000      -0.590227       -16.0609 
   8   1.0000      -0.544709       -14.8223 
   9   1.0000      -0.517500       -14.0819 
  10   1.0000      -0.428043       -11.6476 
  11   1.0000      -0.414976       -11.2921 
  12   1.0000      -0.332177        -9.0390 
  13   0.0000       0.039783         1.0825 
  14   0.0000       0.060876         1.6565 
  15   0.0000       0.077238         2.1018 
  16   0.0000       0.087367         2.3774 
  17   0.0000       0.114132         3.1057 
  18   0.0000       0.126313         3.4372 
  19   0.0000       0.126604         3.4451 
  20   0.0000       0.145539         3.9603 
  21   0.0000       0.172472         4.6932 
  22   0.0000       0.192153         5.2287 
  23   0.0000       0.201498         5.4830 

                 SPIN DOWN ORBITALS
  NO   OCC          E(Eh)            E(eV) 
   0   1.0000     -19.362618      -526.8836 
   1   1.0000     -10.419241      -283.5220 
   2   1.0000     -10.349799      -281.6324 
   3   1.0000      -1.093310       -29.7505 
   4   1.0000      -0.857417       -23.3315 
   5   1.0000      -0.709762       -19.3136 
   6   1.0000      -0.593792       -16.1579 
   7   1.0000      -0.554042       -15.0762 
   8   1.0000      -0.514718       -14.0062 
   9   1.0000      -0.472669       -12.8620 
  10   1.0000      -0.384770       -10.4701 
  11   0.0000      -0.051717        -1.4073 
  12   0.0000      -0.010163        -0.2766 
  13   0.0000       0.038542         1.0488 
  14   0.0000       0.060625         1.6497 
  15   0.0000       0.076928         2.0933 
  16   0.0000       0.089316         2.4304 
  17   0.0000       0.114308         3.1105 
  18   0.0000       0.127648         3.4735 
  19   0.0000       0.131735         3.5847 
  20   0.0000       0.150079         4.0838 
  21   0.0000       0.180003         4.8981 
*Only the first 10 virtual orbitals were printed.

                    ********************************
                    * MULLIKEN POPULATION ANALYSIS *
                    ********************************

--------------------------------------------
MULLIKEN ATOMIC CHARGES AND SPIN POPULATIONS
--------------------------------------------
   0 O :   -0.317123    0.952449
   1 C :    0.025051    0.019502
   2 C :   -0.618734    0.795248
   3 H :    0.177610    0.063843
   4 H :    0.211754    0.108978
   5 H :    0.315049    0.032933
   6 H :    0.206392    0.027048
Sum of atomic charges         :    0.0000000
Sum of atomic spin populations:    2.0000000

-----------------------------------------------------
MULLIKEN REDUCED ORBITAL CHARGES AND SPIN POPULATIONS
-----------------------------------------------------
CHARGE
  0 O s       :     3.984863  s :     3.984863
      pz      :     1.845190  p :     4.312768
      px      :     1.156647
      py      :     1.310931
      dz2     :     0.002593  d :     0.018394
      dxz     :    -0.000370
      dyz     :     0.002401
      dx2y2   :     0.006691
      dxy     :     0.007079
      f0      :     0.000120  f :     0.001098
      f+1     :     0.000051
      f-1     :     0.000270
      f+2     :     0.000127
      f-2     :     0.000023
      f+3     :     0.000252
      f-3     :     0.000255

  1 C s       :     3.174104  s :     3.174104
      pz      :     0.843972  p :     2.610589
      px      :     1.112429
      py      :     0.654188
      dz2     :     0.023322  d :     0.180208
      dxz     :     0.045271
      dyz     :     0.059226
      dx2y2   :     0.010042
      dxy     :     0.042348
      f0      :     0.002170  f :     0.010047
      f+1     :     0.001079
      f-1     :     0.001503
      f+2     :     0.001983
      f-2     :     0.000430
      f+3     :     0.001469
      f-3     :     0.001413

  2 C s       :     3.611449  s :     3.611449
      pz      :     0.930981  p :     2.971978
      px      :     1.038760
      py      :     1.002238
      dz2     :     0.006621  d :     0.031394
      dxz     :    -0.002092
      dyz     :     0.006776
      dx2y2   :     0.012911
      dxy     :     0.007178
      f0      :     0.000924  f :     0.003913
      f+1     :     0.000862
      f-1     :     0.000792
      f+2     :     0.000484
      f-2     :     0.000417
      f+3     :     0.000109
      f-3     :     0.000325

  3 H s       :     0.776715  s :     0.776715
      pz      :     0.008464  p :     0.043098
      px      :     0.018609
      py      :     0.016024
      dz2     :     0.000520  d :     0.002577
      dxz     :     0.000475
      dyz     :     0.000314
      dx2y2   :     0.000797
      dxy     :     0.000472

  4 H s       :     0.751470  s :     0.751470
      pz      :     0.006754  p :     0.034424
      px      :     0.018664
      py      :     0.009006
      dz2     :     0.000634  d :     0.002351
      dxz     :     0.000550
      dyz     :     0.000368
      dx2y2   :     0.000407
      dxy     :     0.000392

  5 H s       :     0.646556  s :     0.646556
      pz      :     0.008384  p :     0.036084
      px      :     0.011560
      py      :     0.016139
      dz2     :     0.000447  d :     0.002311
      dxz     :     0.000355
      dyz     :     0.000444
      dx2y2   :     0.000748
      dxy     :     0.000318

  6 H s       :     0.743196  s :     0.743196
      pz      :     0.015473  p :     0.048026
      px      :     0.013154
      py      :     0.019400
      dz2     :     0.000462  d :     0.002385
      dxz     :     0.000599
      dyz     :     0.000223
      dx2y2   :     0.000553
      dxy     :     0.000548


SPIN
  0 O s       :     0.009279  s :     0.009279
      pz      :     0.101723  p :     0.947930
      px      :     0.768978
      py      :     0.077229
      dz2     :    -0.000250  d :    -0.004616
      dxz     :    -0.000248
      dyz     :    -0.000251
      dx2y2   :    -0.000012
      dxy     :    -0.003855
      f0      :     0.000031  f :    -0.000145
      f+1     :     0.000032
      f-1     :     0.000031
      f+2     :    -0.000016
      f-2     :     0.000003
      f+3     :    -0.000086
      f-3     :    -0.000139

  1 C s       :     0.009819  s :     0.009819
      pz      :    -0.020151  p :    -0.078952
      px      :    -0.009558
      py      :    -0.049243
      dz2     :     0.017653  d :     0.085730
      dxz     :     0.024162
      dyz     :     0.000027
      dx2y2   :     0.010223
      dxy     :     0.033664
      f0      :     0.000705  f :     0.002905
      f+1     :     0.000345
      f-1     :     0.000402
      f+2     :     0.000243
      f-2     :     0.000151
      f+3     :     0.000749
      f-3     :     0.000309

  2 C s       :    -0.047904  s :    -0.047904
      pz      :     0.102742  p :     0.856799
      px      :     0.235110
      py      :     0.518948
      dz2     :     0.002591  d :    -0.012542
      dxz     :    -0.004801
      dyz     :    -0.002087
      dx2y2   :    -0.003012
      dxy     :    -0.005232
      f0      :    -0.000190  f :    -0.001106
      f+1     :     0.000014
      f-1     :    -0.000206
      f+2     :    -0.000144
      f-2     :    -0.000215
      f+3     :    -0.000066
      f-3     :    -0.000298

  3 H s       :     0.056145  s :     0.056145
      pz      :    -0.000221  p :     0.007680
      px      :     0.004002
      py      :     0.003900
      dz2     :    -0.000009  d :     0.000018
      dxz     :     0.000048
      dyz     :    -0.000006
      dx2y2   :    -0.000024
      dxy     :     0.000009

  4 H s       :     0.103039  s :     0.103039
      pz      :     0.002039  p :     0.005854
      px      :     0.004351
      py      :    -0.000536
      dz2     :     0.000061  d :     0.000085
      dxz     :     0.000013
      dyz     :    -0.000003
      dx2y2   :     0.000012
      dxy     :     0.000002

  5 H s       :     0.003399  s :     0.003399
      pz      :     0.002384  p :     0.028464
      px      :     0.009303
      py      :     0.016776
      dz2     :     0.000130  d :     0.001070
      dxz     :     0.000194
      dyz     :     0.000064
      dx2y2   :     0.000673
      dxy     :     0.000009

  6 H s       :     0.002454  s :     0.002454
      pz      :     0.002141  p :     0.023613
      px      :     0.007505
      py      :     0.013967
      dz2     :     0.000122  d :     0.000981
      dxz     :     0.000068
      dyz     :     0.000177
      dx2y2   :     0.000336
      dxy     :     0.000278



                     *******************************
                     * LOEWDIN POPULATION ANALYSIS *
                     *******************************

-------------------------------------------
LOEWDIN ATOMIC CHARGES AND SPIN POPULATIONS
-------------------------------------------
   0 O :    0.020713    0.902013
   1 C :   -0.260408    0.203582
   2 C :    0.251065    0.618971
   3 H :    0.028736    0.036070
   4 H :    0.090387    0.078913
   5 H :   -0.102002    0.093919
   6 H :   -0.028492    0.066534

----------------------------------------------------
LOEWDIN REDUCED ORBITAL CHARGES AND SPIN POPULATIONS
----------------------------------------------------
CHARGE
  0 O s       :     3.513192  s :     3.513192
      pz      :     1.689310  p :     4.214985
      px      :     1.096378
      py      :     1.429297
      dz2     :     0.023447  d :     0.247796
      dxz     :     0.006659
      dyz     :     0.081456
      dx2y2   :     0.061530
      dxy     :     0.074705
      f0      :     0.000357  f :     0.003314
      f+1     :     0.000088
      f-1     :     0.000539
      f+2     :     0.000594
      f-2     :     0.000076
      f+3     :     0.000925
      f-3     :     0.000736

  1 C s       :     2.666220  s :     2.666220
      pz      :     0.935002  p :     2.605774
      px      :     0.889056
      py      :     0.781715
      dz2     :     0.179618  d :     0.910920
      dxz     :     0.186403
      dyz     :     0.261363
      dx2y2   :     0.160873
      dxy     :     0.122663
      f0      :     0.014402  f :     0.077494
      f+1     :     0.007121
      f-1     :     0.013526
      f+2     :     0.012840
      f-2     :     0.006397
      f+3     :     0.010284
      f-3     :     0.012924

  2 C s       :     2.711180  s :     2.711180
      pz      :     0.916571  p :     2.587153
      px      :     0.880540
      py      :     0.790042
      dz2     :     0.113498  d :     0.423372
      dxz     :     0.143608
      dyz     :     0.087359
      dx2y2   :     0.042396
      dxy     :     0.036511
      f0      :     0.006575  f :     0.027231
      f+1     :     0.006019
      f-1     :     0.005289
      f+2     :     0.003018
      f-2     :     0.003187
      f+3     :     0.001714
      f-3     :     0.001429

  3 H s       :     0.677182  s :     0.677182
      pz      :     0.081917  p :     0.266064
      px      :     0.113364
      py      :     0.070783
      dz2     :     0.005123  d :     0.028018
      dxz     :     0.006241
      dyz     :     0.003917
      dx2y2   :     0.006527
      dxy     :     0.006210

  4 H s       :     0.656450  s :     0.656450
      pz      :     0.082061  p :     0.230758
      px      :     0.098452
      py      :     0.050245
      dz2     :     0.005880  d :     0.022406
      dxz     :     0.006895
      dyz     :     0.003303
      dx2y2   :     0.003524
      dxy     :     0.002804

  5 H s       :     0.741758  s :     0.741758
      pz      :     0.089386  p :     0.321204
      px      :     0.111550
      py      :     0.120268
      dz2     :     0.006054  d :     0.039040
      dxz     :     0.006011
      dyz     :     0.007187
      dx2y2   :     0.010795
      dxy     :     0.008994

  6 H s       :     0.719683  s :     0.719683
      pz      :     0.081753  p :     0.278953
      px      :     0.117748
      py      :     0.079452
      dz2     :     0.005142  d :     0.029856
      dxz     :     0.008084
      dyz     :     0.002317
      dx2y2   :     0.007438
      dxy     :     0.006875


SPIN
  0 O s       :     0.018330  s :     0.018330
      pz      :     0.106304  p :     0.867734
      px      :     0.699285
      py      :     0.062145
      dz2     :     0.002456  d :     0.015987
      dxz     :     0.000803
      dyz     :     0.004097
      dx2y2   :     0.000906
      dxy     :     0.007724
      f0      :    -0.000004  f :    -0.000039
      f+1     :     0.000020
      f-1     :    -0.000014
      f+2     :     0.000044
      f-2     :     0.000007
      f+3     :     0.000036
      f-3     :    -0.000128

  1 C s       :    -0.004525  s :    -0.004525
      pz      :    -0.012467  p :    -0.024130
      px      :     0.000665
      py      :    -0.012329
      dz2     :     0.046585  d :     0.210519
      dxz     :     0.050967
      dyz     :     0.014900
      dx2y2   :     0.021525
      dxy     :     0.076543
      f0      :     0.005367  f :     0.021719
      f+1     :     0.002021
      f-1     :     0.002792
      f+2     :     0.001654
      f-2     :     0.001780
      f+3     :     0.005483
      f-3     :     0.002623

  2 C s       :     0.013190  s :     0.013190
      pz      :     0.071967  p :     0.610707
      px      :     0.173872
      py      :     0.364868
      dz2     :    -0.000428  d :    -0.004207
      dxz     :     0.001929
      dyz     :    -0.002102
      dx2y2   :    -0.001753
      dxy     :    -0.001853
      f0      :    -0.000429  f :    -0.000719
      f+1     :     0.000189
      f-1     :    -0.000416
      f+2     :    -0.000040
      f-2     :     0.000066
      f+3     :     0.000115
      f-3     :    -0.000206

  3 H s       :     0.031610  s :     0.031610
      pz      :    -0.000608  p :     0.004851
      px      :     0.001836
      py      :     0.003623
      dz2     :    -0.000035  d :    -0.000391
      dxz     :     0.000118
      dyz     :    -0.000126
      dx2y2   :    -0.000251
      dxy     :    -0.000097

  4 H s       :     0.071313  s :     0.071313
      pz      :     0.001754  p :     0.007981
      px      :     0.003221
      py      :     0.003006
      dz2     :     0.000132  d :    -0.000382
      dxz     :    -0.000219
      dyz     :    -0.000145
      dx2y2   :    -0.000045
      dxy     :    -0.000104

  5 H s       :    -0.009588  s :    -0.009588
      pz      :     0.010046  p :     0.090423
      px      :     0.025894
      py      :     0.054483
      dz2     :     0.001026  d :     0.013083
      dxz     :     0.002479
      dyz     :     0.000289
      dx2y2   :     0.009054
      dxy     :     0.000234

  6 H s       :    -0.011449  s :    -0.011449
      pz      :     0.006725  p :     0.068578
      px      :     0.020685
      py      :     0.041168
      dz2     :     0.000838  d :     0.009404
      dxz     :     0.000443
      dyz     :     0.001742
      dx2y2   :     0.003533
      dxy     :     0.002848



                      *****************************
                      * MAYER POPULATION ANALYSIS *
                      *****************************

  NA   - Mulliken gross atomic population
  ZA   - Total nuclear charge
  QA   - Mulliken gross atomic charge
  VA   - Mayer's total valence
  BVA  - Mayer's bonded valence
  FA   - Mayer's free valence

  ATOM       NA         ZA         QA         VA         BVA        FA
  0 O      8.3171     8.0000    -0.3171     1.8631     1.0958     0.7673
  1 C      5.9749     6.0000     0.0251     3.5318     3.5139     0.0179
  2 C      6.6187     6.0000    -0.6187     3.4866     2.7730     0.7136
  3 H      0.8224     1.0000     0.1776     1.0497     1.0472     0.0025
  4 H      0.7882     1.0000     0.2118     1.0184     1.0076     0.0108
  5 H      0.6850     1.0000     0.3150     0.8707     0.8705     0.0003
  6 H      0.7936     1.0000     0.2064     0.9926     0.9922     0.0004

  Mayer bond orders larger than 0.100000
B(  0-O ,  1-C ) :   0.8930 B(  1-C ,  2-C ) :   0.7866 B(  1-C ,  3-H ) :   0.9782 
B(  1-C ,  4-H ) :   0.9117 B(  2-C ,  5-H ) :   0.9047 B(  2-C ,  6-H ) :   1.0014 


-------
TIMINGS
-------

Total SCF time: 0 days 0 hours 0 min 10 sec 

Total time                  ....      10.058 sec
Sum of individual times     ....      10.014 sec  ( 99.6%)

SCF preparation             ....       1.619 sec  ( 16.1%)
Fock matrix formation       ....       6.615 sec  ( 65.8%)
  Startup                   ....       0.091 sec  (  1.4% of F)
  Split-RI-J                ....       0.494 sec  (  7.5% of F)
  Chain of spheres X        ....       2.654 sec  ( 40.1% of F)
  XC integration            ....       1.335 sec  ( 20.2% of F)
    XC Preparation          ....       0.000 sec  (  0.0% of XC)
    Basis function eval.    ....       0.050 sec  (  3.7% of XC)
    Density eval.           ....       0.211 sec  ( 15.8% of XC)
    XC-Functional eval.     ....       0.016 sec  (  1.2% of XC)
    XC-Potential eval.      ....       0.323 sec  ( 24.2% of XC)
Diagonalization             ....       0.000 sec  (  0.0%)
Density matrix formation    ....       0.159 sec  (  1.6%)
Total Energy calculation    ....       0.552 sec  (  5.5%)
Population analysis         ....       0.036 sec  (  0.4%)
Orbital Transformation      ....       0.076 sec  (  0.8%)
[...]
[1741607123.870596] [ohm:3106866:0]        ib_iface.c:1059 UCX  ERROR ibv_create_cq(cqe=256) failed: Connection timed out
[1741607123.873351] [ohm:3106896:0]        ib_iface.c:1059 UCX  ERROR ibv_create_cq(cqe=256) failed: Connection timed out
[1741607123.873997] [ohm:3106844:0]        ib_iface.c:1059 UCX  ERROR ibv_create_cq(cqe=256) failed: Connection timed out
[1741607123.874449] [ohm:3106836:0]        ib_iface.c:1059 UCX  ERROR ibv_create_cq(cqe=256) failed: Connection timed out
[1741607123.874573] [ohm:3106881:0]        ib_iface.c:1059 UCX  ERROR ibv_create_cq(cqe=256) failed: Connection timed out
[1741607123.874592] [ohm:3106892:0]        ib_iface.c:1059 UCX  ERROR ibv_create_cq(cqe=256) failed: Connection timed out
[1741607123.874553] [ohm:3106785:0]        ib_iface.c:1059 UCX  ERROR ibv_create_cq(cqe=256) failed: Connection timed out
[1741607123.874598] [ohm:3106860:0]        ib_iface.c:1059 UCX  ERROR ibv_create_cq(cqe=256) failed: Connection timed out
[1741607123.875258] [ohm:3106875:0]        ib_iface.c:1059 UCX  ERROR ibv_create_cq(cqe=256) failed: Connection timed out
[1741607123.877787] [ohm:3106877:0]        ib_iface.c:1059 UCX  ERROR ibv_create_cq(cqe=256) failed: Connection timed out


           ************************************************************
           *        Program running with 64 parallel MPI-processes    *
           *              working on a common directory               *
           ************************************************************

------------------------------------------------------------------------------
                              ORCA PROPERTY CALCULATIONS
------------------------------------------------------------------------------

GBWName                                 ... orca.gbw
Number of atoms                         ...      7
Number of basis functions               ...    182
Max core memory                         ...   1024 MB

Electric properties:
Dipole moment                           ... YES
Quadrupole moment                       ...  NO
Static polarizability (Dipole/Dipole)   ...  NO
Static polarizability (Dipole/Quad.)    ...  NO
Static polarizability (Quad./Quad.)     ...  NO
Static polarizability (Velocity)        ...  NO

Atomic electric properties:
Dipole moment                           ...  NO
Quadrupole moment                       ...  NO
Static polarizability                   ...  NO

Choice of electric origin               ... Center of mass
Position of electric origin             ...     0.766765     0.122731     0.136526

General magnetic properties:
Magnetizability                         ...  NO

EPR properties:
g-Tensor (aka g-matrix)                 ...  NO
Zero-Field splitting spin-orbit         ...  NO
Zero-field splitting spin-spin          ...  NO
Hyperfine couplings                     ...  NO (   0 nuclei)
Quadrupole couplings                    ...  NO (   0 nuclei)
Contact density                         ...  NO (   0 nuclei)

NMR properties:
Chemical shifts                         ...  NO (   0 nuclei)
Spin-rotation constants                 ...  NO (   0 nuclei)
Spin-spin couplings                     ...  NO (   0 nuclei,    0 pairs)

Choice of magnetic origin               ... GIAO
Position of magnetic origin             ...     0.000000     0.000000     0.000000

Properties with geometric perturbations:
SCF Hessian                             ...  NO
IR spectrum                             ...  NO
VCD spectrum                            ...  NO
X-ray spectroscopy properties:
SCF XES/XAS/RIXS spectra                ...  NO


-------------
DIPOLE MOMENT
-------------

Method             : SCF
Type of density    : Electron Density
Multiplicity       :   3
Irrep              :   0
Energy             :  -153.7681764925690970 Eh
Relativity type    : 
Basis              : AO
                                X                 Y                 Z
Electronic contribution:     -0.482164536       2.314036885       0.552185659
Nuclear contribution   :      0.634208663      -3.203381697      -0.503446368
                        -----------------------------------------
Total Dipole Moment    :      0.152044127      -0.889344813       0.048739291
                        -----------------------------------------
Magnitude (a.u.)       :      0.903563573
Magnitude (Debye)      :      2.296676083



--------------------
Rotational spectrum 
--------------------
 
Rotational constants in cm-1:             1.333941             0.364323             0.315981 
Rotational constants in MHz :         39990.547351         10922.117180          9472.877676 

Dipole components along the rotational axes: 
x,y,z [a.u.] :     0.688119     0.582097     0.063892 
x,y,z [Debye]:     1.749059     1.479574     0.162400 

 

-------------
DIPOLE MOMENT
-------------

Method             : TDA/CIS
Type of density    : Electron Density
Level              : Relaxed density
State              :   1
Multiplicity       :   3
Irrep              :   0
Energy             :     0.0000000000000000 Eh
Relativity type    : 
Basis              : AO
                                X                 Y                 Z
Electronic contribution:     -0.373195651       1.905565534       0.121686927
Nuclear contribution   :      0.634208663      -3.203381697      -0.503446368
                        -----------------------------------------
Total Dipole Moment    :      0.261013012      -1.297816163      -0.381759441
                        -----------------------------------------
Magnitude (a.u.)       :      1.377749925
Magnitude (Debye)      :      3.501962004



--------------------
Rotational spectrum 
--------------------
 
Rotational constants in cm-1:             1.333941             0.364323             0.315981 
Rotational constants in MHz :         39990.547351         10922.117180          9472.877676 

Dipole components along the rotational axes: 
x,y,z [a.u.] :     1.284162     0.491392     0.087510 
x,y,z [Debye]:     3.264079     1.249019     0.222432 

 

Dipole moment calculation done in   0.0 sec 

Maximum memory used throughout the entire PROP-calculation: 7.4 MB
[1741607125.636573] [ohm:3107109:0]        ib_iface.c:1059 UCX  ERROR ibv_create_cq(cqe=256) failed: Connection timed out
[1741607125.638349] [ohm:3107114:0]        ib_iface.c:1059 UCX  ERROR ibv_create_cq(cqe=256) failed: Connection timed out
[1741607125.645969] [ohm:3107113:0]        ib_iface.c:1059 UCX  ERROR ibv_create_cq(cqe=256) failed: Connection timed out
[1741607125.646551] [ohm:3107108:0]        ib_iface.c:1059 UCX  ERROR ibv_create_cq(cqe=256) failed: Connection timed out
[1741607125.661959] [ohm:3107111:0]        ib_iface.c:1059 UCX  ERROR ibv_create_cq(cqe=256) failed: Connection timed out
[1741607125.704290] [ohm:3107112:0]        ib_iface.c:1059 UCX  ERROR ibv_create_cq(cqe=256) failed: Connection timed out
[1741607125.705628] [ohm:3107110:0]        ib_iface.c:1059 UCX  ERROR ibv_create_cq(cqe=256) failed: Connection timed out
[1741607125.708785] [ohm:3107119:0]        ib_iface.c:1059 UCX  ERROR ibv_create_cq(cqe=256) failed: Connection timed out
[1741607125.709308] [ohm:3107122:0]        ib_iface.c:1059 UCX  ERROR ibv_create_cq(cqe=256) failed: Connection timed out
[1741607125.712312] [ohm:3107116:0]        ib_iface.c:1059 UCX  ERROR ibv_create_cq(cqe=256) failed: Connection timed out
[1741607125.752235] [ohm:3107106:0]        ib_iface.c:1059 UCX  ERROR ibv_create_cq(cqe=256) failed: Connection timed out
[1741607125.752293] [ohm:3107107:0]        ib_iface.c:1059 UCX  ERROR ibv_create_cq(cqe=256) failed: Connection timed out
[1741607125.765369] [ohm:3107161:0]        ib_iface.c:1059 UCX  ERROR ibv_create_cq(cqe=256) failed: Connection timed out
[1741607125.767260] [ohm:3107148:0]        ib_iface.c:1059 UCX  ERROR ibv_create_cq(cqe=256) failed: Connection timed out
[1741607125.770858] [ohm:3107115:0]        ib_iface.c:1059 UCX  ERROR ibv_create_cq(cqe=256) failed: Connection timed out
[1741607125.772201] [ohm:3107236:0]        ib_iface.c:1059 UCX  ERROR ibv_create_cq(cqe=256) failed: Connection timed out
[1741607125.772365] [ohm:3107146:0]        ib_iface.c:1059 UCX  ERROR ibv_create_cq(cqe=256) failed: Connection timed out
[1741607125.787962] [ohm:3107221:0]        ib_iface.c:1059 UCX  ERROR ibv_create_cq(cqe=256) failed: Connection timed out
[1741607125.795303] [ohm:3107174:0]        ib_iface.c:1059 UCX  ERROR ibv_create_cq(cqe=256) failed: Connection timed out
[1741607125.795884] [ohm:3107118:0]        ib_iface.c:1059 UCX  ERROR ibv_create_cq(cqe=256) failed: Connection timed out
[1741607125.828161] [ohm:3107250:0]        ib_iface.c:1059 UCX  ERROR ibv_create_cq(cqe=256) failed: Connection timed out
[1741607125.838575] [ohm:3107164:0]        ib_iface.c:1059 UCX  ERROR ibv_create_cq(cqe=256) failed: Connection timed out
[1741607125.849338] [ohm:3107172:0]        ib_iface.c:1059 UCX  ERROR ibv_create_cq(cqe=256) failed: Connection timed out
[1741607125.861334] [ohm:3107117:0]        ib_iface.c:1059 UCX  ERROR ibv_create_cq(cqe=256) failed: Connection timed out
[1741607125.872803] [ohm:3107217:0]        ib_iface.c:1059 UCX  ERROR ibv_create_cq(cqe=256) failed: Connection timed out
[1741607125.873431] [ohm:3107211:0]        ib_iface.c:1059 UCX  ERROR ibv_create_cq(cqe=256) failed: Connection timed out
[1741607125.873846] [ohm:3107171:0]        ib_iface.c:1059 UCX  ERROR ibv_create_cq(cqe=256) failed: Connection timed out
[1741607125.892025] [ohm:3107140:0]        ib_iface.c:1059 UCX  ERROR ibv_create_cq(cqe=256) failed: Connection timed out
[1741607125.895641] [ohm:3107121:0]        ib_iface.c:1059 UCX  ERROR ibv_create_cq(cqe=256) failed: Connection timed out
[1741607125.918367] [ohm:3107177:0]        ib_iface.c:1059 UCX  ERROR ibv_create_cq(cqe=256) failed: Connection timed out
[1741607125.926087] [ohm:3107141:0]        ib_iface.c:1059 UCX  ERROR ibv_create_cq(cqe=256) failed: Connection timed out
[1741607125.932557] [ohm:3107168:0]        ib_iface.c:1059 UCX  ERROR ibv_create_cq(cqe=256) failed: Connection timed out
[1741607125.934199] [ohm:3107242:0]        ib_iface.c:1059 UCX  ERROR ibv_create_cq(cqe=256) failed: Connection timed out
[1741607125.934391] [ohm:3107170:0]        ib_iface.c:1059 UCX  ERROR ibv_create_cq(cqe=256) failed: Connection timed out
[1741607125.937624] [ohm:3107179:0]        ib_iface.c:1059 UCX  ERROR ibv_create_cq(cqe=256) failed: Connection timed out
[1741607125.940714] [ohm:3107204:0]        ib_iface.c:1059 UCX  ERROR ibv_create_cq(cqe=256) failed: Connection timed out
[1741607125.940502] [ohm:3107227:0]        ib_iface.c:1059 UCX  ERROR ibv_create_cq(cqe=256) failed: Connection timed out
[1741607125.947596] [ohm:3107173:0]        ib_iface.c:1059 UCX  ERROR ibv_create_cq(cqe=256) failed: Connection timed out
[1741607125.947906] [ohm:3107142:0]        ib_iface.c:1059 UCX  ERROR ibv_create_cq(cqe=256) failed: Connection timed out
[1741607125.950041] [ohm:3107214:0]        ib_iface.c:1059 UCX  ERROR ibv_create_cq(cqe=256) failed: Connection timed out
[1741607125.955586] [ohm:3107201:0]        ib_iface.c:1059 UCX  ERROR ibv_create_cq(cqe=256) failed: Connection timed out
[1741607125.961237] [ohm:3107143:0]        ib_iface.c:1059 UCX  ERROR ibv_create_cq(cqe=256) failed: Connection timed out
[1741607125.961366] [ohm:3107233:0]        ib_iface.c:1059 UCX  ERROR ibv_create_cq(cqe=256) failed: Connection timed out
[1741607125.962578] [ohm:3107209:0]        ib_iface.c:1059 UCX  ERROR ibv_create_cq(cqe=256) failed: Connection timed out
[1741607125.969015] [ohm:3107151:0]        ib_iface.c:1059 UCX  ERROR ibv_create_cq(cqe=256) failed: Connection timed out
[1741607125.970874] [ohm:3107139:0]        ib_iface.c:1059 UCX  ERROR ibv_create_cq(cqe=256) failed: Connection timed out
[1741607125.974891] [ohm:3107193:0]        ib_iface.c:1059 UCX  ERROR ibv_create_cq(cqe=256) failed: Connection timed out
[1741607125.983544] [ohm:3107185:0]        ib_iface.c:1059 UCX  ERROR ibv_create_cq(cqe=256) failed: Connection timed out
[1741607125.985088] [ohm:3107188:0]        ib_iface.c:1059 UCX  ERROR ibv_create_cq(cqe=256) failed: Connection timed out
[1741607125.988064] [ohm:3107120:0]        ib_iface.c:1059 UCX  ERROR ibv_create_cq(cqe=256) failed: Connection timed out
[1741607125.988840] [ohm:3107156:0]        ib_iface.c:1059 UCX  ERROR ibv_create_cq(cqe=256) failed: Connection timed out
[1741607125.992968] [ohm:3107222:0]        ib_iface.c:1059 UCX  ERROR ibv_create_cq(cqe=256) failed: Connection timed out
[1741607125.993073] [ohm:3107154:0]        ib_iface.c:1059 UCX  ERROR ibv_create_cq(cqe=256) failed: Connection timed out
[1741607125.995219] [ohm:3107255:0]        ib_iface.c:1059 UCX  ERROR ibv_create_cq(cqe=256) failed: Connection timed out
[1741607125.999057] [ohm:3107248:0]        ib_iface.c:1059 UCX  ERROR ibv_create_cq(cqe=256) failed: Connection timed out
[1741607125.999242] [ohm:3107178:0]        ib_iface.c:1059 UCX  ERROR ibv_create_cq(cqe=256) failed: Connection timed out
[1741607125.999590] [ohm:3107197:0]        ib_iface.c:1059 UCX  ERROR ibv_create_cq(cqe=256) failed: Connection timed out
[1741607126.001839] [ohm:3107175:0]        ib_iface.c:1059 UCX  ERROR ibv_create_cq(cqe=256) failed: Connection timed out
[1741607126.002105] [ohm:3107196:0]        ib_iface.c:1059 UCX  ERROR ibv_create_cq(cqe=256) failed: Connection timed out
[1741607126.002997] [ohm:3107182:0]        ib_iface.c:1059 UCX  ERROR ibv_create_cq(cqe=256) failed: Connection timed out
[1741607126.003214] [ohm:3107176:0]        ib_iface.c:1059 UCX  ERROR ibv_create_cq(cqe=256) failed: Connection timed out
[1741607126.003917] [ohm:3107219:0]        ib_iface.c:1059 UCX  ERROR ibv_create_cq(cqe=256) failed: Connection timed out
[1741607126.004959] [ohm:3107238:0]        ib_iface.c:1059 UCX  ERROR ibv_create_cq(cqe=256) failed: Connection timed out
[1741607126.005479] [ohm:3107245:0]        ib_iface.c:1059 UCX  ERROR ibv_create_cq(cqe=256) failed: Connection timed out

--------------------------------
SUGGESTED CITATIONS FOR THIS RUN
--------------------------------

Below you find a list of papers that are relevant to this ORCA run
We neither can nor want to force you to cite these papers, but we appreciate if you do
You receive ORCA, which is the product of decades of hard work by many enthusiastic individuals, for free
The only thing we kindly ask in return is that you cite our papers,
We deeply appreciate it, if you show your appreciation for ORCA by not just citing the generic ORCA reference.

Please note that relegating all ORCA citations to the supporting information does *not* help us.
SI sections are not indexed - citations you put there will not count into any citation statistics
But we need these citations in order to attract the funding resources that allow us to do what we are doing

Therefore, if you are a happy ORCA user, please consider citing a few of the papers listed below in the main body of your paper

In addition to the list printed below, the program has created the file orca.bibtex that contains the list in bibtex format
You can import this file easily into all common literature databanks and citation aid programs


List of essential papers. We consider these as the minimum necessary citations

  1. Neese,F.
     Software update: the ORCA program system, version 5.0
     WIRES Comput. Molec. Sci., 2022 12(1)e1606
     doi.org/10.1002/wcms.1606

List of papers to cite with high priority. The work reported in these papers was absolutely
necessary for this run to complete.
Our perspective: the developers of density functionals and basis sets usually get cited in chemistry papers
Good! But without the algorithms to do something with them, the functionals or basis sets would not do anything.
Hence, in our opinion, the algorithm design and method developments papers are equally worthy of getting cited

  1. Neese,F.; Olbrich,G.
     Efficient use of the resolution of the identity approximation in time-dependent density functional calculations with hybrid density functionals
     Chem. Phys. Lett., 2002 362 170-178
     doi.org/10.1016/s0009-2614(02)01053-9
  2. Neese,F.
     An improvement of the resolution of the identity approximation for the formation of the Coulomb matrix
     J. Comp. Chem., 2003 24(14)1740-1747
     doi.org/10.1002/jcc.10318
  3. Neese,F.; Wennmohs,F.; Hansen,A.; Becker,U.
     Efficient, approximate and parallel Hartree-Fock and hybrid DFT calculations. A 'chain-of-spheres' algorithm for the Hartree-Fock exchange
     Chem. Phys., 2009 356(1-3)98-109
     doi.org/10.1016/j.chemphys.2008.10.036
  4. Petrenko,T.; Kossmann,S.; Neese,F.
     Efficient time-dependent density functional theory approximations for hybrid density functionals: Analytical gradients and parallelization
     J. Chem. Phys., 2011 134 054116
     doi.org/10.1063/1.3533441
  5. Helmich-Paris,B.; de Souza,B.; Neese,F.; Izsák,R.
     An improved chain of spheres for exchange algorithm
     J. Chem. Phys., 2021 155 104109
     doi.org/doi: 10.1063/5.0058766.
  6. Neese,F.
     The SHARK Integral Generation and Digestion System
     J. Comp. Chem., 2022  1-16
     doi.org/10.1002/jcc.26942
  7. Lehtola,S.; Steigemann,C.; Oliveira,M.; Marques,M.
     Recent developments in Libxc - A comprehensive library of functionals for density functional theory
     Software X, 2018 7 
     doi.org/10.1016/j.softx.2017.11.002
  8. Grimme,S.; Antony,J.; Ehrlich,S.; Krieg,H.
     A consistent and accurate ab initio parametrization of density functional dispersion correction (DFT-D) for the 94 elements H-Pu
     J. Chem. Phys., 2010 132 154104-XXXX
     doi.org/10.1063/1.3382344
  9. Grimme,S.; Ehrlich,S.; Goerigk,L.
     Effect of the damping function in dispersion corrected density functional theory
     J. Comput. Chem., 2011 32(7)1456-1465
     doi.org/10.1002/jcc.21759

List of suggested additional citations. These are papers that are important in the 'surrounding' of 
of this run, or papers that preceded the highly important papers. If you like your results we are grateful for a citation.

  1. Izsak,R.; Neese,F.
     An overlap fitted chain of spheres exchange method
     J. Chem. Phys., 2011 135 144105
     doi.org/10.1063/1.3646921
  2. Izsak,R.; Hansen,A.; Neese,F.
     The resolution of identity and chain of spheres approximations for the LPNO-CCSD singles Fock term
     Molec. Phys., 2012 110 2413-2417
     doi.org/10.1080/00268976.2012.687466
  3. Neese,F.
     The ORCA program system
     WIRES Comput. Molec. Sci., 2012 2(1)73-78
     doi.org/10.1002/wcms.81
  4. Izsak,R.; Neese,F.; Klopper,W.
     Robust fitting techniques in the chain of spheres approximation to the Fock exchange: The role of the complementary space
     J. Chem. Phys., 2013 139 
     doi.org/10.1063/1.4819264
  5. Neese,F.
     Software update: the ORCA program system, version 4.0
     WIRES Comput. Molec. Sci., 2018 8(1)1-6
     doi.org/10.1002/wcms.1327
  6. Neese,F.; Wennmohs,F.; Becker,U.; Riplinger,C.
     The ORCA quantum chemistry program package
     J. Chem. Phys., 2020 152 Art. No. L224108
     doi.org/10.1063/5.0004608

List of optional additional citations

  1. Neese,F.
     Approximate second-order SCF convergence for spin unrestricted wavefunctions
     Chem. Phys. Lett., 2000 325(1-3)93-98
     doi.org/10.1016/s0009-2614(00)00662-x

Timings for individual modules:

Sum of individual times          ...       27.277 sec (=   0.455 min)
Startup calculation              ...        2.448 sec (=   0.041 min)   9.0 %
SCF iterations                   ...       12.724 sec (=   0.212 min)  46.6 %
Property integrals               ...        2.114 sec (=   0.035 min)   7.8 %
Property calculations            ...        2.088 sec (=   0.035 min)   7.7 %
CIS module                       ...        7.902 sec (=   0.132 min)  29.0 %
                             ****ORCA TERMINATED NORMALLY****
TOTAL RUN TIME: 0 days 0 hours 0 minutes 29 seconds 475 msec
