
                                 *****************
                                 * O   R   C   A *
                                 *****************

                                            #,                                       
                                            ###                                      
                                            ####                                     
                                            #####                                    
                                            ######                                   
                                           ########,                                 
                                     ,,################,,,,,                         
                               ,,#################################,,                 
                          ,,##########################################,,             
                       ,#########################################, ''#####,          
                    ,#############################################,,   '####,        
                  ,##################################################,,,,####,       
                ,###########''''           ''''###############################       
              ,#####''   ,,,,##########,,,,          '''####'''          '####       
            ,##' ,,,,###########################,,,                        '##       
           ' ,,###''''                  '''############,,,                           
         ,,##''                                '''############,,,,        ,,,,,,###''
      ,#''                                            '''#######################'''  
     '                                                          ''''####''''         
             ,#######,   #######,   ,#######,      ##                                
            ,#'     '#,  ##    ##  ,#'     '#,    #''#        ,####,   ,####,        
            ##       ##  ##   ,#'  ##            #'  '#       #'       #'  '#        
            ##       ##  #######   ##           ,######,      #####,   #    #        
            '#,     ,#'  ##    ##  '#,     ,#' ,#      #,     #,   #   #,  ,#        
             '#######'   ##     ##  '#######'  #'      '#     '####' # '####'        



                #########################################################
                #                        -***-                          #
                #          Department of theory and spectroscopy        #
                #                                                       #
                #                      Frank Neese                      #
                #                                                       #
                #     Directorship, Architecture, Infrastructure        #
                #                    SHARK, DRIVERS                     #
                #        Core code/Algorithms in most modules           #
                #                                                       #
                #        Max Planck Institute fuer Kohlenforschung      #
                #                Kaiser Wilhelm Platz 1                 #
                #                 D-45470 Muelheim/Ruhr                 #
                #                      Germany                          #
                #                                                       #
                #                  All rights reserved                  #
                #                        -***-                          #
                #########################################################


                         Program Version 6.0.0  -   RELEASE  -


 With contributions from (in alphabetic order):
   Daniel Aravena         : Magnetic Suceptibility
   Michael Atanasov       : Ab Initio Ligand Field Theory (pilot matlab implementation)
   Alexander A. Auer      : GIAO ZORA, VPT2 properties, NMR spectrum
   Ute Becker             : All parallelization in ORCA, NUMFREQ, NUMCALC
   Giovanni Bistoni       : ED, misc. LED, open-shell LED, HFLD
   Martin Brehm           : Molecular dynamics
   Dmytro Bykov           : pre 5.0 version of the SCF Hessian
   Marcos Casanova-Páez   : Triplet and SCS-CIS(D). UHF-(DLPNO)-IP/EA/STEOM-CCSD. UHF-CVS-IP/STEOM-CCSD
   Vijay G. Chilkuri      : MRCI spin determinant printing, contributions to CSF-ICE
   Pauline Colinet        : FMM embedding
   Dipayan Datta          : RHF DLPNO-CCSD density
   Achintya Kumar Dutta   : EOM-CC, STEOM-CC
   Nicolas Foglia         : Exact transition moments, OPA infrastructure, MCD improvements
   Dmitry Ganyushin       : Spin-Orbit,Spin-Spin,Magnetic field MRCI
   Miquel Garcia          : C-PCM and meta-GGA Hessian, CCSD/C-PCM, Gaussian charge scheme
   Tiago L. C. Gouveia    : GS-ROHF, GS-ROCIS
   Yang Guo               : DLPNO-NEVPT2, F12-NEVPT2, CIM, IAO-localization
   Andreas Hansen         : Spin unrestricted coupled pair/coupled cluster methods
   Ingolf Harden          : AUTO-CI MPn and infrastructure 
   Benjamin Helmich-Paris : MC-RPA, TRAH-(SCF,CASSCF), AVAS, COSX integrals, SCF dyn. polar.
   Lee Huntington         : MR-EOM, pCC
   Robert Izsak           : Overlap fitted RIJCOSX, COSX-SCS-MP3, EOM
   Riya Kayal             : Wick's Theorem for AUTO-CI, AUTO-CI UHF-CCSDT
   Emily Kempfer          : AUTO-CI, RHF CISDT and CCSDT
   Christian Kollmar      : KDIIS, OOCD, Brueckner-CCSD(T), CCSD density, CASPT2, CASPT2-K, improved NEVPT2
   Axel Koslowski         : Symmetry handling
   Simone Kossmann        : Meta GGA functionals, TD-DFT gradient, OOMP2, (MP2 Hessian; deprecated post 5.0)
   Lucas Lang             : DCDCAS
   Marvin Lechner         : AUTO-CI (C++ implementation), FIC-MRCC
   Spencer Leger          : CASSCF response
   Dagmar Lenk            : GEPOL surface, SMD, ORCA-2-JSON
   Dimitrios Liakos       : Extrapolation schemes; Compound Job, initial MDCI parallelization
   Dimitrios Manganas     : Further ROCIS development; embedding schemes. LFT, Crystal Embedding
   Dimitrios Pantazis     : SARC Basis sets
   Anastasios Papadopoulos: AUTO-CI, single reference methods and gradients
   Taras Petrenko         : pre 6.0 DFT Hessian and TD-DFT gradient, (ASA, deprecated), ECA, 1-Electron XAS/XES, NRVS
   Peter Pinski           : DLPNO-MP2, DLPNO-MP2 Gradient
   Christoph Reimann      : Effective Core Potentials
   Marius Retegan         : Local ZFS, SOC
   Christoph Riplinger    : Optimizer, TS searches, QM/MM, DLPNO-CCSD(T), (RO)-DLPNO pert. Triples
   Michael Roemelt        : Original ROCIS implementation
   Masaaki Saitow         : Open-shell DLPNO-CCSD energy and density
   Barbara Sandhoefer     : DKH picture change effects
   Kantharuban Sivalingam : CASSCF convergence/infrastructure, NEVPT2 and variants, FIC-MRCI
   Bernardo de Souza      : ESD, SOC TD-DFT
   Georgi Stoychev        : AutoAux, RI-MP2 NMR, DLPNO-MP2 response, X2C
   Van Anh Tran           : RI-MP2 g-tensors
   Willem Van den Heuvel  : Paramagnetic NMR
   Zikuan Wang            : NOTCH, Electric field optimization 
   Frank Wennmohs         : Technical directorship and infrastructure
   Hang Xu                : AUTO-CI-Response properties 


 We gratefully acknowledge several colleagues who have allowed us to
 interface, adapt or use parts of their codes:
   Stefan Grimme, W. Hujo, H. Kruse, P. Pracht,  : VdW corrections, initial TS optimization,
                  C. Bannwarth, S. Ehlert,         DFT functionals, gCP, sTDA/sTD-DF
                  L. Wittmann, M. Mueller
   Ed Valeev, F. Pavosevic, A. Kumar             : LibInt (2-el integral package), F12 methods
   Garnet Chan, S. Sharma, J. Yang, R. Olivares  : DMRG
   Ulf Ekstrom                                   : XCFun DFT Library
   Mihaly Kallay                                 : mrcc  (arbitrary order and MRCC methods)
   Frank Weinhold                                : gennbo (NPA and NBO analysis)
   Simon Mueller                                 : openCOSMO-RS
   Christopher J. Cramer and Donald G. Truhlar   : smd solvation model
   Lars Goerigk                                  : TD-DFT with DH, B97 family of functionals
   V. Asgeirsson, H. Jonsson                     : NEB implementation
   FAccTs GmbH                                   : IRC, NEB, NEB-TS, DLPNO-Multilevel, CI-OPT
                                                   MM, QMMM, 2- and 3-layer-ONIOM, Crystal-QMMM,
                                                   LR-CPCM, SF, NACMEs, symmetry and pop. for TD-DFT,
                                                   nearIR, NL-DFT gradient (VV10), updates on ESD,
                                                   ML-optimized integration grids, MBIS, APM,
                                                   GOAT, DOCKER, SOLVATOR, interface openCOSMO-RS
   S Lehtola, MJT Oliveira, MAL Marques          : LibXC Library
   Liviu Ungur et al                             : ANISO software


 Your calculation uses the libint2 library for the computation of 2-el integrals
 For citations please refer to: http://libint.valeyev.net

 Your ORCA version has been built with support for libXC version: 6.2.2
 For citations please refer to: https://libxc.gitlab.io

 This ORCA versions uses:
   CBLAS   interface :  Fast vector & matrix operations
   LAPACKE interface :  Fast linear algebra routines
   SCALAPACK package :  Parallel linear algebra routines
   Shared memory     :  Shared parallel matrices
   BLAS/LAPACK       :  OpenBLAS 0.3.27  USE64BITINT DYNAMIC_ARCH NO_AFFINITY Zen SINGLE_THREADED
        Core in use  :  Zen
   Copyright (c) 2011-2014, The OpenBLAS Project


Your calculation utilizes the atom-pairwise dispersion correction
with the Becke-Johnson damping scheme (D3BJ)


Warning: RI is on but no J-basis has been assigned. Assigning Def2/J (nothing to worry about!)
================================================================================

----- Orbital basis set information -----
Your calculation utilizes the basis: def2-TZVPPD
   F. Weigend and R. Ahlrichs, Phys. Chem. Chem. Phys. 7, 3297 (2005).
   D. Rappoport and F. Furche, J. Chem. Phys. 133, 134105 (2010)
   D. Rappoport, J. Chem. Phys. 155, 124102 (2021).

----- AuxJ basis set information -----
Your calculation utilizes the auxiliary basis: def2/J
   F. Weigend, Phys. Chem. Chem. Phys. 8, 1057 (2006).

================================================================================
                                        WARNINGS
                       Please study these warnings very carefully!
================================================================================

Using LibXC functional ID 531 : wB97M-V exchange-correlation functional
[ 1]  N. Mardirossian and M. Head-Gordon.,  J. Chem. Phys. 144, 214110 (2016)
Using LibXC functional ID 531 : wB97M-V exchange-correlation functional
[ 1]  N. Mardirossian and M. Head-Gordon.,  J. Chem. Phys. 144, 214110 (2016)

WARNING: B97M-V or wB97M-V functional requested.
  ===> : libXC variant has now been activated.
         Any manually given DFX/HFX/RangeSep scaling parameters are IGNORED!

Your calculation utilizes LibXC
 by S Lehtola, C Steigemann, MJT Oliveira & MAL Marques
Please cite in your paper:
 S Lehtola, C Steigemann, MJT Oliveira & MAL Marques, SoftwareX, 7, (2018), 1.
   

INFO   : Checking CIS options ...

WARNING: CIS/ROCIS methods need fully converged wavefunctions
  ===> : Setting SCFConvForced true
         You can overwrite this default with %scf ConvForced false 


================================================================================
                                       INPUT FILE
================================================================================
NAME = orca.inp
|  1> ! ENGRAD wB97M-D3BJ def2-TZVPPD 
|  2> %pal nprocs 8 end%pal nprocs 16 end 
|  3> %tddft nroots 4 Iroot 1 end 
|  4> *xyz 0 1 
|  5> O   1.25384958051786 1.09380335603985 -0.09841657136497
|  6> C   0.92176425875409 0.00123015689938 0.27936527960018
|  7> C   -0.31919888863592 -0.68195634111119 -0.21671482781771
|  8> H   1.53000999167799 -0.54998292679385 1.02012721497148
|  9> H   -0.05483411460215 -1.63608645923187 -0.67476693810093
| 10> H   -0.83186892668512 -0.0498654130222 -0.93446129124662
| 11> H   -0.9757238621346 -0.90719162899993 0.62486713395857
| 12> *
| 13> 
| 14>                          ****END OF INPUT****
================================================================================

                     *******************************
                     * Energy+Gradient Calculation *
                     *******************************

---------------------------------
CARTESIAN COORDINATES (ANGSTROEM)
---------------------------------
  O      1.253850    1.093803   -0.098417
  C      0.921764    0.001230    0.279365
  C     -0.319199   -0.681956   -0.216715
  H      1.530010   -0.549983    1.020127
  H     -0.054834   -1.636086   -0.674767
  H     -0.831869   -0.049865   -0.934461
  H     -0.975724   -0.907192    0.624867

----------------------------
CARTESIAN COORDINATES (A.U.)
----------------------------
  NO LB      ZA    FRAG     MASS         X           Y           Z
   0 O     8.0000    0    15.999    2.369432    2.066989   -0.185980
   1 C     6.0000    0    12.011    1.741882    0.002325    0.527924
   2 C     6.0000    0    12.011   -0.603198   -1.288711   -0.409532
   3 H     1.0000    0     1.008    2.891300   -1.039317    1.927761
   4 H     1.0000    0     1.008   -0.103621   -3.091755   -1.275125
   5 H     1.0000    0     1.008   -1.572004   -0.094232   -1.765876
   6 H     1.0000    0     1.008   -1.843851   -1.714344    1.180828

--------------------------------
INTERNAL COORDINATES (ANGSTROEM)
--------------------------------
 O      0   0   0     0.000000000000     0.00000000     0.00000000
 C      1   0   0     1.202795071211     0.00000000     0.00000000
 C      2   1   0     1.500942636219   122.54236937     0.00000000
 H      2   1   3     1.105679420153   120.75631460   180.01645513
 H      3   2   1     1.090900889994   109.66504728   121.49095376
 H      3   2   1     1.085140311227   110.12616288     0.00000000
 H      3   2   1     1.090878624836   109.66905207   238.48296315

---------------------------
INTERNAL COORDINATES (A.U.)
---------------------------
 O      0   0   0     0.000000000000     0.00000000     0.00000000
 C      1   0   0     2.272953279819     0.00000000     0.00000000
 C      2   1   0     2.836370525180   122.54236937     0.00000000
 H      2   1   3     2.089431296002   120.75631460   180.01645513
 H      3   2   1     2.061503921340   109.66504728   121.49095376
 H      3   2   1     2.050618005098   110.12616288     0.00000000
 H      3   2   1     2.061461846289   109.66905207   238.48296315

---------------------
BASIS SET INFORMATION
---------------------
There are 3 groups of distinct atoms

 Group   1 Type O   : 12s7p3d1f contracted to 6s4p3d1f pattern {621111/4111/111/1}
 Group   2 Type C   : 12s6p3d1f contracted to 6s3p3d1f pattern {621111/411/111/1}
 Group   3 Type H   : 5s3p1d contracted to 3s3p1d pattern {311/111/1}

Atom   0O    basis set group =>   1
Atom   1C    basis set group =>   2
Atom   2C    basis set group =>   2
Atom   3H    basis set group =>   3
Atom   4H    basis set group =>   3
Atom   5H    basis set group =>   3
Atom   6H    basis set group =>   3
---------------------------------
AUXILIARY/J BASIS SET INFORMATION
---------------------------------
There are 3 groups of distinct atoms

 Group   1 Type O   : 12s5p4d2f1g contracted to 6s4p3d1f1g pattern {711111/2111/211/2/1}
 Group   2 Type C   : 12s5p4d2f1g contracted to 6s4p3d1f1g pattern {711111/2111/211/2/1}
 Group   3 Type H   : 5s2p1d contracted to 3s1p1d pattern {311/2/1}

Atom   0O    basis set group =>   1
Atom   1C    basis set group =>   2
Atom   2C    basis set group =>   2
Atom   3H    basis set group =>   3
Atom   4H    basis set group =>   3
Atom   5H    basis set group =>   3
Atom   6H    basis set group =>   3
[1741191888.376122] [ohm:216385:0]        ib_iface.c:1059 UCX  ERROR ibv_create_cq(cqe=256) failed: Connection timed out
[1741191888.377867] [ohm:216386:0]        ib_iface.c:1059 UCX  ERROR ibv_create_cq(cqe=256) failed: Connection timed out
[1741191888.377930] [ohm:216384:0]        ib_iface.c:1059 UCX  ERROR ibv_create_cq(cqe=256) failed: Connection timed out
[1741191888.392613] [ohm:216388:0]        ib_iface.c:1059 UCX  ERROR ibv_create_cq(cqe=256) failed: Connection timed out
[1741191888.393647] [ohm:216390:0]        ib_iface.c:1059 UCX  ERROR ibv_create_cq(cqe=256) failed: Connection timed out
[1741191888.420961] [ohm:216389:0]        ib_iface.c:1059 UCX  ERROR ibv_create_cq(cqe=256) failed: Connection timed out
[1741191888.426230] [ohm:216397:0]        ib_iface.c:1059 UCX  ERROR ibv_create_cq(cqe=256) failed: Connection timed out
[1741191888.428802] [ohm:216391:0]        ib_iface.c:1059 UCX  ERROR ibv_create_cq(cqe=256) failed: Connection timed out
[1741191888.429706] [ohm:216393:0]        ib_iface.c:1059 UCX  ERROR ibv_create_cq(cqe=256) failed: Connection timed out
[1741191888.440942] [ohm:216387:0]        ib_iface.c:1059 UCX  ERROR ibv_create_cq(cqe=256) failed: Connection timed out
[1741191888.445119] [ohm:216407:0]        ib_iface.c:1059 UCX  ERROR ibv_create_cq(cqe=256) failed: Connection timed out
[1741191888.459095] [ohm:216410:0]        ib_iface.c:1059 UCX  ERROR ibv_create_cq(cqe=256) failed: Connection timed out
[1741191888.463075] [ohm:216402:0]        ib_iface.c:1059 UCX  ERROR ibv_create_cq(cqe=256) failed: Connection timed out
[1741191888.463378] [ohm:216400:0]        ib_iface.c:1059 UCX  ERROR ibv_create_cq(cqe=256) failed: Connection timed out
[1741191888.466353] [ohm:216395:0]        ib_iface.c:1059 UCX  ERROR ibv_create_cq(cqe=256) failed: Connection timed out
[1741191888.477382] [ohm:216412:0]        ib_iface.c:1059 UCX  ERROR ibv_create_cq(cqe=256) failed: Connection timed out


           ************************************************************
           *        Program running with 16 parallel MPI-processes    *
           *              working on a common directory               *
           ************************************************************
------------------------------------------------------------------------------
                             ORCA STARTUP CALCULATIONS
                           -- RI-GTO INTEGRALS CHOSEN --
------------------------------------------------------------------------------
------------------------------------------------------------------------------
                   ___                                                        
                  /   \      - P O W E R E D   B Y -                         
                 /     \                                                     
                 |  |  |   _    _      __       _____    __    __             
                 |  |  |  | |  | |    /  \     |  _  \  |  |  /  |          
                  \  \/   | |  | |   /    \    | | | |  |  | /  /          
                 / \  \   | |__| |  /  /\  \   | |_| |  |  |/  /          
                |  |  |   |  __  | /  /__\  \  |    /   |      \           
                |  |  |   | |  | | |   __   |  |    \   |  |\   \          
                \     /   | |  | | |  |  |  |  | |\  \  |  | \   \       
                 \___/    |_|  |_| |__|  |__|  |_| \__\ |__|  \__/        
                                                                              
                      - O R C A' S   B I G   F R I E N D -                    
                                      &                                       
                       - I N T E G R A L  F E E D E R -                       
                                                                              
 v1 FN, 2020, v2 2021, v3 2022-2024                                           
------------------------------------------------------------------------------


----------------------
SHARK INTEGRAL PACKAGE
----------------------

Number of atoms                             ...      7
Number of basis functions                   ...    182
Number of shells                            ...     68
Maximum angular momentum                    ...      3
Integral batch strategy                     ... SHARK/LIBINT Hybrid
RI-J (if used) integral strategy            ... SPLIT-RIJ (Revised 2003 algorithm where possible)
Printlevel                                  ...      1
Contraction scheme used                     ... SEGMENTED contraction
Prescreening option                         ... SCHWARTZ
   Thresh                                   ... 2.500e-11
   Tcut                                     ... 2.500e-12
   Tpresel                                  ... 2.500e-12 
Coulomb Range Separation                    ... NOT USED
Exchange Range Separation                   ... Long Range
   Mu parameter                             ... 3.000e-01
   Scaling (regular/separated)              ... 1.500e-01 8.500e-01
Multipole approximations                    ... NOT USED
Finite Nucleus Model                        ... NOT USED
CABS basis                                  ... NOT available
Auxiliary Coulomb fitting basis             ... AVAILABLE
   # of basis functions in Aux-J            ...    191
   # of shells in Aux-J                     ...     65
   Maximum angular momentum in Aux-J        ...      4
Auxiliary J/K fitting basis                 ... NOT available
Auxiliary Correlation fitting basis         ... NOT available
Auxiliary 'external' fitting basis          ... NOT available

Checking pre-screening integrals            ... done (  0.0 sec) Dimension = 68
Check shell pair data                       ... done (  0.0 sec)
Shell pair information
Shell pair cut-off parameter TPreSel        ...   2.5e-12
Total number of shell pairs                 ...      2346
Shell pairs after pre-screening             ...      2325
Total number of primitive shell pairs       ...      5434
Primitive shell pairs kept                  ...      4813
          la=0 lb=0:    455 shell pairs
          la=1 lb=0:    654 shell pairs
          la=1 lb=1:    253 shell pairs
          la=2 lb=0:    385 shell pairs
          la=2 lb=1:    286 shell pairs
          la=2 lb=2:     91 shell pairs
          la=3 lb=0:     90 shell pairs
          la=3 lb=1:     66 shell pairs
          la=3 lb=2:     39 shell pairs
          la=3 lb=3:      6 shell pairs

Calculating one electron integrals          ... done (  0.2 sec)
Calculating RI/J V-Matrix + Cholesky decomp.... done (  0.6 sec)
Calculating Nuclear repulsion               ... done (  0.0 sec) ENN=     70.027932989956 Eh

Diagonalization of the overlap matrix:
Smallest eigenvalue                        ... 1.500e-05
Time for diagonalization                   ...    0.037 sec
Threshold for overlap eigenvalues          ... 1.000e-07
Number of eigenvalues below threshold      ... 0
Time for construction of square roots      ...    0.234 sec
Total time needed                          ...    0.620 sec

-------------------
DFT GRID GENERATION
-------------------

General Integration Accuracy     IntAcc      ... 4.388
Radial Grid Type                 RadialGrid  ... OptM3 with GC (2021)
Angular Grid (max. ang.)         AngularGrid ... 4 (Lebedev-302)
Angular grid pruning method      GridPruning ... 4 (adaptive)
Weight generation scheme         WeightScheme... mBecke (2022)
Basis function cutoff            BFCut       ... 1.0000e-11
Integration weight cutoff        WCut        ... 1.0000e-14
Partially contracted basis set               ... off
Rotationally invariant grid construction     ... off
Angular grids for H and He will be reduced by one unit
Diffuse basis detected: some atoms will have their outermost
                        angular grid increased by 1.

Total number of grid points                  ...    33158
Total number of batches                      ...      521
Average number of points per batch           ...       63
Average number of grid points per atom       ...     4737

--------------------
COSX GRID GENERATION
--------------------

GRIDX 1
-------
General Integration Accuracy     IntAcc      ... 3.816
Radial Grid Type                 RadialGrid  ... OptM3 with GC (2021)
Angular Grid (max. ang.)         AngularGrid ... 1 (Lebedev-50)
Angular grid pruning method      GridPruning ... 4 (adaptive)
Weight generation scheme         WeightScheme... mBecke (2022)
Basis function cutoff            BFCut       ... 1.0000e-11
Integration weight cutoff        WCut        ... 1.0000e-14
Partially contracted basis set               ... on
Rotationally invariant grid construction     ... off
Angular grids for H and He will be reduced by one unit
Diffuse basis detected: some atoms will have their outermost
                        angular grid increased by 1.

Total number of grid points                  ...     4168
Total number of batches                      ...       36
Average number of points per batch           ...      115
Average number of grid points per atom       ...      595
UseSFitting                                  ... on

GRIDX 2
-------
General Integration Accuracy     IntAcc      ... 4.020
Radial Grid Type                 RadialGrid  ... OptM3 with GC (2021)
Angular Grid (max. ang.)         AngularGrid ... 2 (Lebedev-110)
Angular grid pruning method      GridPruning ... 4 (adaptive)
Weight generation scheme         WeightScheme... mBecke (2022)
Basis function cutoff            BFCut       ... 1.0000e-11
Integration weight cutoff        WCut        ... 1.0000e-14
Partially contracted basis set               ... on
Rotationally invariant grid construction     ... off
Angular grids for H and He will be reduced by one unit
Diffuse basis detected: some atoms will have their outermost
                        angular grid increased by 1.

Total number of grid points                  ...    10288
Total number of batches                      ...       83
Average number of points per batch           ...      123
Average number of grid points per atom       ...     1470
UseSFitting                                  ... on

GRIDX 3
-------
General Integration Accuracy     IntAcc      ... 4.338
Radial Grid Type                 RadialGrid  ... OptM3 with GC (2021)
Angular Grid (max. ang.)         AngularGrid ... 3 (Lebedev-194)
Angular grid pruning method      GridPruning ... 4 (adaptive)
Weight generation scheme         WeightScheme... mBecke (2022)
Basis function cutoff            BFCut       ... 1.0000e-11
Integration weight cutoff        WCut        ... 1.0000e-14
Partially contracted basis set               ... on
Rotationally invariant grid construction     ... off
Angular grids for H and He will be reduced by one unit
Diffuse basis detected: some atoms will have their outermost
                        angular grid increased by 1.

Total number of grid points                  ...    23157
Total number of batches                      ...      184
Average number of points per batch           ...      125
Average number of grid points per atom       ...     3308
UseSFitting                                  ... on
Initializing property integral containers    ... done (  0.1 sec)

SHARK setup successfully completed in   3.2 seconds

Maximum memory used throughout the entire STARTUP-calculation: 13.8 MB
[1741191892.872618] [ohm:216472:0]        ib_iface.c:1059 UCX  ERROR ibv_create_cq(cqe=256) failed: Connection timed out
[1741191892.893656] [ohm:216469:0]        ib_iface.c:1059 UCX  ERROR ibv_create_cq(cqe=256) failed: Connection timed out
[1741191892.893681] [ohm:216471:0]        ib_iface.c:1059 UCX  ERROR ibv_create_cq(cqe=256) failed: Connection timed out
[1741191892.912164] [ohm:216468:0]        ib_iface.c:1059 UCX  ERROR ibv_create_cq(cqe=256) failed: Connection timed out
[1741191892.942619] [ohm:216474:0]        ib_iface.c:1059 UCX  ERROR ibv_create_cq(cqe=256) failed: Connection timed out
[1741191892.947240] [ohm:216470:0]        ib_iface.c:1059 UCX  ERROR ibv_create_cq(cqe=256) failed: Connection timed out
[1741191892.976367] [ohm:216475:0]        ib_iface.c:1059 UCX  ERROR ibv_create_cq(cqe=256) failed: Connection timed out
[1741191892.985784] [ohm:216476:0]        ib_iface.c:1059 UCX  ERROR ibv_create_cq(cqe=256) failed: Connection timed out
[1741191892.985944] [ohm:216493:0]        ib_iface.c:1059 UCX  ERROR ibv_create_cq(cqe=256) failed: Connection timed out
[1741191892.997819] [ohm:216473:0]        ib_iface.c:1059 UCX  ERROR ibv_create_cq(cqe=256) failed: Connection timed out
[1741191892.997819] [ohm:216486:0]        ib_iface.c:1059 UCX  ERROR ibv_create_cq(cqe=256) failed: Connection timed out
[1741191892.997892] [ohm:216496:0]        ib_iface.c:1059 UCX  ERROR ibv_create_cq(cqe=256) failed: Connection timed out
[1741191893.002795] [ohm:216480:0]        ib_iface.c:1059 UCX  ERROR ibv_create_cq(cqe=256) failed: Connection timed out
[1741191893.003823] [ohm:216488:0]        ib_iface.c:1059 UCX  ERROR ibv_create_cq(cqe=256) failed: Connection timed out
[1741191893.004293] [ohm:216478:0]        ib_iface.c:1059 UCX  ERROR ibv_create_cq(cqe=256) failed: Connection timed out
[1741191893.014695] [ohm:216490:0]        ib_iface.c:1059 UCX  ERROR ibv_create_cq(cqe=256) failed: Connection timed out


           ************************************************************
           *        Program running with 16 parallel MPI-processes    *
           *              working on a common directory               *
           ************************************************************
-------------------------------------------------------------------------------
                                 ORCA GUESS
                   Start orbitals & Density for SCF / CASSCF
-------------------------------------------------------------------------------

------------
SCF SETTINGS
------------
Hamiltonian:
 Density Functional     Method          .... DFT(GTOs)
  Functional kind                       .... Exchange-Correlation
  Functional name                       .... wB97M-V exchange-correlation functional
  Functional family                     .... Hybrid MGGA
  Functional refs                              
    [ 0] N. Mardirossian and M. Head-Gordon.,  J. Chem. Phys. 144, 214110 (2016), doi: 10.1063/1.4952647
  Fraction of HF Exchange (short range) .... 0.1500
  Fraction of HF Exchange (long range)  .... 1.0000
  Range separation parameter mu         .... 0.3000
  Functional external parameters        .... 17
    Parameter  0 _cx00      =  8.500000e-01 : u^00 coefficient for exchange
    Parameter  1 _cx01      =  1.007000e+00 : u^01 coefficient for exchange
    Parameter  2 _cx10      =  2.590000e-01 : u^10 coefficient for exchange
    Parameter  3 _css00     =  4.430000e-01 : u^00 coefficient for same-spin correlation
    Parameter  4 _css04     = -1.437000e+00 : u^04 coefficient for same-spin correlation
    Parameter  5 _css10     = -4.535000e+00 : u^10 coefficient for same-spin correlation
    Parameter  6 _css20     = -3.390000e+00 : u^20 coefficient for same-spin correlation
    Parameter  7 _css43     =  4.278000e+00 : u^43 coefficient for same-spin correlation
    Parameter  8 _cos00     =  1.000000e+00 : u^00 coefficient for opposite-spin correlation
    Parameter  9 _cos10     =  1.358000e+00 : u^10 coefficient for opposite-spin correlation
    Parameter 10 _cos20     =  2.924000e+00 : u^20 coefficient for opposite-spin correlation
    Parameter 11 _cos21     = -8.812000e+00 : u^21 coefficient for opposite-spin correlation
    Parameter 12 _cos60     = -1.390000e+00 : u^60 coefficient for opposite-spin correlation
    Parameter 13 _cos61     =  9.142000e+00 : u^61 coefficient for opposite-spin correlation
    Parameter 14 _alpha     =  1.000000e+00 : fraction of HF exchange
    Parameter 15 _beta      = -8.500000e-01 : fraction of short-range exchange
    Parameter 16 _omega     =  3.000000e-01 : range-separation constant
 Long-range corrected/Screened/Range-Separated Hybrid DFT is turned on
   Amount of maximum screened exact exchange              ....  0.850000
   Range separation parameter mu (erf(mu*r12)/r12)        ....  0.300000
 RI-approximation to the Coulomb term is turned on
   Number of AuxJ basis functions       .... 191
   RIJ-COSX (HFX calculated with COS-X)).... on


General Settings:
 Integral files         IntName         .... orca
 Hartree-Fock type      HFTyp           .... RHF
 Total Charge           Charge          ....    0
 Multiplicity           Mult            ....    1
 Number of Electrons    NEL             ....   24
 Basis Dimension        Dim             ....  182
 Nuclear Repulsion      ENuc            ....     70.0279329900 Eh

Convergence Acceleration:
 AO-DIIS                CNVDIIS         .... on
   Start iteration      DIISMaxIt       ....    12
   Startup error        DIISStart       ....  0.200000
   # of expansion vecs  DIISMaxEq       ....     5
   Bias factor          DIISBfac        ....   1.050
   Max. coefficient     DIISMaxC        ....  10.000
 MO-DIIS                CNVKDIIS        .... off
 Trust-Rad. Augm. Hess. CNVTRAH         .... auto
   Auto Start mean grad. ratio tolernc. ....  1.125000
   Auto Start start iteration           ....    50
   Auto Start num. interpolation iter.  ....    10
   Max. Number of Micro iterations      ....    24
   Max. Number of Macro iterations      .... Maxiter - #DIIS iter
   Number of Davidson start vectors     ....     2
   Converg. threshold    (grad. norm)   ....   1.000e-05
   Grad. Scal. Fac. for Micro threshold ....   0.100
   Minimum threshold for Micro iter.    ....   1.000e-02
   NR start threshold (gradient norm)   ....   1.000e-04
   Initial trust radius                 ....   0.400
   Minimum AH scaling param. (alpha)    ....   1.000
   Maximum AH scaling param. (alpha)    .... 1000.000
   Quad. conv. algorithm                .... NR
   White noise on init. David. guess    .... on
   Maximum white noise                  ....   0.010
   Pseudo random numbers                .... off
   Inactive MOs                         .... canonical
   Orbital update algorithm             .... Taylor
   Preconditioner                       .... Diag
   Full preconditioner red. dimension   ....   250
 SOSCF                  CNVSOSCF        .... on
   Start iteration      SOSCFMaxIt      ....   150
   Startup grad/error   SOSCFStart      ....  0.003300
   Hessian update       SOSCFHessUp     .... L-BFGS
 Level Shifting         CNVShift        .... on
   Level shift para.    LevelShift      ....    0.2500
   Turn off err/grad.   ShiftErr        ....    0.0010
 Zerner damping         CNVZerner       .... off
 Static damping         CNVDamp         .... on
   Fraction old density DampFac         ....    0.7000
   Max. Damping (<1)    DampMax         ....    0.9800
   Min. Damping (>=0)   DampMin         ....    0.0000
   Turn off err/grad.   DampErr         ....    0.1000

SCF Procedure:
 Maximum # iterations   MaxIter         ....   125
 SCF integral mode      SCFMode         .... Direct
   Integral package                     .... SHARK and LIBINT hybrid scheme
 Reset frequency        DirectResetFreq ....    20
 Integral Threshold     Thresh          ....  2.500e-11 Eh
 Primitive CutOff       TCut            ....  2.500e-12 Eh

Convergence Tolerance:
 Convergence Check Mode ConvCheckMode   .... Total+1el-Energy
 Convergence forced     ConvForced      .... 1
 Energy Change          TolE            ....  1.000e-08 Eh
 1-El. energy change                    ....  1.000e-05 Eh
 Orbital Gradient       TolG            ....  1.000e-05
 Orbital Rotation angle TolX            ....  1.000e-05
 DIIS Error             TolErr          ....  5.000e-07

------------------------------
INITIAL GUESS: MODEL POTENTIAL
------------------------------
Loading Hartree-Fock densities                     ... done
Calculating cut-offs                               ... done
Initializing the effective Hamiltonian             ... done
Setting up the integral package (SHARK)            ... done
Starting the Coulomb interaction                   ... done (   0.0 sec)
Making the grid                                    ... done (   0.0 sec)
Mapping shells                                     ... done
Starting the XC term evaluation                    ... done (   0.0 sec)
  promolecular density results
     # of electrons  =     23.997701872
     EX              =    -19.521215256
     EC              =     -0.771893906
     EX+EC           =    -20.293109163
Transforming the Hamiltonian                       ... done (   0.0 sec)
Diagonalizing the Hamiltonian                      ... done (   0.0 sec)
Back transforming the eigenvectors                 ... done (   0.0 sec)
Now organizing SCF variables                       ... done
                      ------------------
                      INITIAL GUESS DONE (   0.1 sec)
                      ------------------
             **** ENERGY FILE WAS UPDATED (orca.en.tmp) ****
Finished Guess after   1.3 sec
Maximum memory used throughout the entire GUESS-calculation: 9.7 MB
[1741191894.915049] [ohm:216552:0]        ib_iface.c:1059 UCX  ERROR ibv_create_cq(cqe=256) failed: Connection timed out
[1741191894.935772] [ohm:216556:0]        ib_iface.c:1059 UCX  ERROR ibv_create_cq(cqe=256) failed: Connection timed out
[1741191894.966167] [ohm:216566:0]        ib_iface.c:1059 UCX  ERROR ibv_create_cq(cqe=256) failed: Connection timed out
[1741191894.971085] [ohm:216578:0]        ib_iface.c:1059 UCX  ERROR ibv_create_cq(cqe=256) failed: Connection timed out
[1741191894.972860] [ohm:216554:0]        ib_iface.c:1059 UCX  ERROR ibv_create_cq(cqe=256) failed: Connection timed out
[1741191894.986311] [ohm:216551:0]        ib_iface.c:1059 UCX  ERROR ibv_create_cq(cqe=256) failed: Connection timed out
[1741191895.001776] [ohm:216584:0]        ib_iface.c:1059 UCX  ERROR ibv_create_cq(cqe=256) failed: Connection timed out
[1741191895.005279] [ohm:216555:0]        ib_iface.c:1059 UCX  ERROR ibv_create_cq(cqe=256) failed: Connection timed out
[1741191895.005769] [ohm:216553:0]        ib_iface.c:1059 UCX  ERROR ibv_create_cq(cqe=256) failed: Connection timed out
[1741191895.007624] [ohm:216581:0]        ib_iface.c:1059 UCX  ERROR ibv_create_cq(cqe=256) failed: Connection timed out
[1741191895.008382] [ohm:216560:0]        ib_iface.c:1059 UCX  ERROR ibv_create_cq(cqe=256) failed: Connection timed out
[1741191895.010239] [ohm:216558:0]        ib_iface.c:1059 UCX  ERROR ibv_create_cq(cqe=256) failed: Connection timed out
[1741191895.011838] [ohm:216572:0]        ib_iface.c:1059 UCX  ERROR ibv_create_cq(cqe=256) failed: Connection timed out
[1741191895.019708] [ohm:216575:0]        ib_iface.c:1059 UCX  ERROR ibv_create_cq(cqe=256) failed: Connection timed out
[1741191895.023063] [ohm:216562:0]        ib_iface.c:1059 UCX  ERROR ibv_create_cq(cqe=256) failed: Connection timed out
[1741191895.027910] [ohm:216569:0]        ib_iface.c:1059 UCX  ERROR ibv_create_cq(cqe=256) failed: Connection timed out


           ************************************************************
           *        Program running with 16 parallel MPI-processes    *
           *              working on a common directory               *
           ************************************************************

-------------------------------------------------------------------------------------------
                                      ORCA LEAN-SCF
                              memory conserving SCF solver
-------------------------------------------------------------------------------------------

----------------------------------------D-I-I-S--------------------------------------------
Iteration    Energy (Eh)           Delta-E    RMSDP     MaxDP     DIISErr   Damp  Time(sec)
-------------------------------------------------------------------------------------------
               ***  Starting incremental Fock matrix formation  ***
    1    -153.7982479462712320     0.00e+00  1.96e-03  4.87e-02  2.57e-01  0.700   1.3
    2    -153.8534244082903797    -5.52e-02  1.68e-03  4.64e-02  1.23e-01  0.700   0.2
                               ***Turning on AO-DIIS***
    3    -153.8782719689903047    -2.48e-02  1.26e-03  4.18e-02  5.75e-02  0.700   0.2
    4    -153.8932102715387202    -1.49e-02  3.10e-03  1.02e-01  3.41e-02  0.000   0.2
    5    -153.9261223585043865    -3.29e-02  2.06e-04  8.66e-03  4.83e-03  0.000   0.2
                              *** Initializing SOSCF ***
---------------------------------------S-O-S-C-F--------------------------------------
Iteration    Energy (Eh)           Delta-E    RMSDP     MaxDP     MaxGrad    Time(sec)
--------------------------------------------------------------------------------------
    6    -153.9262281531513281    -1.06e-04  9.89e-05  4.23e-03  2.63e-03     0.2
               *** Restarting incremental Fock matrix formation ***
    7    -153.9262366615414521    -8.51e-06  5.60e-05  1.44e-03  6.91e-04     0.3
    8    -153.9262424428347913    -5.78e-06  3.05e-05  6.72e-04  2.82e-04     0.3
    9    -153.9262435088285201    -1.07e-06  4.42e-06  8.95e-05  2.78e-05     0.3
   10    -153.9262435371916240    -2.84e-08  1.68e-06  4.16e-05  1.50e-05     0.2
   11    -153.9262435443556285    -7.16e-09  1.06e-06  8.23e-05  4.36e-06     0.2
                 **** Energy Check signals convergence ****

               *****************************************************
               *                     SUCCESS                       *
               *           SCF CONVERGED AFTER  11 CYCLES          *
               *****************************************************

Recomputing exchange energy using gridx3       ... done (    0.414 sec)
Old exchange energy                            :     -6.199917819 Eh
New exchange energy                            :     -6.199921654 Eh
Exchange energy change after final integration :     -0.000003835 Eh
Total energy after final integration           :   -153.926247379 Eh
             **** ENERGY FILE WAS UPDATED (orca.en.tmp) ****

----------------
TOTAL SCF ENERGY
----------------

Total Energy       :       -153.92624737935085 Eh           -4188.54613 eV

Components:
Nuclear Repulsion  :         70.02793298995573 Eh            1905.55693 eV
Electronic Energy  :       -223.95417653431136 Eh           -6094.10296 eV
One Electron Energy:       -346.66924526852119 Eh           -9433.34975 eV
Two Electron Energy:        122.71506873420984 Eh            3339.24678 eV

Virial components:
Potential Energy   :       -307.33781959736262 Eh           -8363.08724 eV
Kinetic Energy     :        153.41157221801177 Eh            4174.54111 eV
Virial Ratio       :          2.00335486530708

DFT components:
N(Alpha)           :       11.999982745670 electrons
N(Beta)            :       11.999982745670 electrons
N(Total)           :       23.999965491340 electrons
E(XC)              :      -14.753685900418 Eh       

---------------
SCF CONVERGENCE
---------------

  Last Energy change         ...    7.1640e-09  Tolerance :   1.0000e-08
  Last MAX-Density change    ...    8.2329e-05  Tolerance :   1.0000e-07
  Last RMS-Density change    ...    1.0622e-06  Tolerance :   5.0000e-09
  Last DIIS Error            ...    2.6289e-03  Tolerance :   5.0000e-07
  Last Orbital Gradient      ...    4.3622e-06  Tolerance :   1.0000e-05
  Last Orbital Rotation      ...    8.2333e-06  Tolerance :   1.0000e-05


----------------
ORBITAL ENERGIES
----------------

  NO   OCC          E(Eh)            E(eV) 
   0   2.0000     -19.338713      -526.2331 
   1   2.0000     -10.442900      -284.1658 
   2   2.0000     -10.355846      -281.7969 
   3   2.0000      -1.187773       -32.3209 
   4   2.0000      -0.881587       -23.9892 
   5   2.0000      -0.704027       -19.1576 
   6   2.0000      -0.598494       -16.2858 
   7   2.0000      -0.559650       -15.2289 
   8   2.0000      -0.552290       -15.0286 
   9   2.0000      -0.507920       -13.8212 
  10   2.0000      -0.475094       -12.9280 
  11   2.0000      -0.368581       -10.0296 
  12   0.0000       0.038051         1.0354 
  13   0.0000       0.053868         1.4658 
  14   0.0000       0.059157         1.6097 
  15   0.0000       0.083687         2.2772 
  16   0.0000       0.086467         2.3529 
  17   0.0000       0.111700         3.0395 
  18   0.0000       0.125014         3.4018 
  19   0.0000       0.125486         3.4147 
  20   0.0000       0.134748         3.6667 
  21   0.0000       0.172611         4.6970 
  22   0.0000       0.182261         4.9596 
*Only the first 10 virtual orbitals were printed.

                    ********************************
                    * MULLIKEN POPULATION ANALYSIS *
                    ********************************

-----------------------
MULLIKEN ATOMIC CHARGES
-----------------------
   0 O :   -0.474766
   1 C :    0.236951
   2 C :   -0.695360
   3 H :    0.242894
   4 H :    0.224229
   5 H :    0.241934
   6 H :    0.224117
Sum of atomic charges:    0.0000000

--------------------------------
MULLIKEN REDUCED ORBITAL CHARGES
--------------------------------
  0 O s       :     4.007443  s :     4.007443
      pz      :     1.484620  p :     4.433478
      px      :     1.649695
      py      :     1.299163
      dz2     :     0.004313  d :     0.031939
      dxz     :     0.002900
      dyz     :     0.008598
      dx2y2   :     0.009925
      dxy     :     0.006203
      f0      :     0.000151  f :     0.001906
      f+1     :     0.000062
      f-1     :     0.000354
      f+2     :     0.000273
      f-2     :     0.000216
      f+3     :     0.000385
      f-3     :     0.000465

  1 C s       :     3.234029  s :     3.234029
      pz      :     0.810872  p :     2.330513
      px      :     0.810846
      py      :     0.708795
      dz2     :     0.016039  d :     0.183012
      dxz     :     0.004680
      dyz     :     0.071501
      dx2y2   :     0.020157
      dxy     :     0.070634
      f0      :     0.001000  f :     0.015495
      f+1     :     0.000887
      f-1     :     0.002562
      f+2     :     0.002757
      f-2     :     0.001705
      f+3     :     0.003555
      f-3     :     0.003029

  2 C s       :     3.382503  s :     3.382503
      pz      :     1.154526  p :     3.258659
      px      :     0.965382
      py      :     1.138751
      dz2     :     0.007553  d :     0.051961
      dxz     :     0.015003
      dyz     :     0.016623
      dx2y2   :     0.005915
      dxy     :     0.006867
      f0      :     0.000142  f :     0.002238
      f+1     :     0.000269
      f-1     :     0.000071
      f+2     :     0.000318
      f-2     :     0.000581
      f+3     :     0.000449
      f-3     :     0.000409

  3 H s       :     0.724071  s :     0.724071
      pz      :     0.012442  p :     0.030677
      px      :     0.008329
      py      :     0.009906
      dz2     :     0.000409  d :     0.002358
      dxz     :     0.000421
      dyz     :     0.000579
      dx2y2   :     0.000629
      dxy     :     0.000320

  4 H s       :     0.728046  s :     0.728046
      pz      :     0.017657  p :     0.045491
      px      :     0.004735
      py      :     0.023100
      dz2     :     0.000325  d :     0.002234
      dxz     :     0.000224
      dyz     :     0.000571
      dx2y2   :     0.000448
      dxy     :     0.000665

  5 H s       :     0.711648  s :     0.711648
      pz      :     0.019145  p :     0.044139
      px      :     0.016906
      py      :     0.008087
      dz2     :     0.000560  d :     0.002279
      dxz     :     0.000435
      dyz     :     0.000435
      dx2y2   :     0.000489
      dxy     :     0.000359

  6 H s       :     0.728092  s :     0.728092
      pz      :     0.010828  p :     0.045557
      px      :     0.015047
      py      :     0.019682
      dz2     :     0.000684  d :     0.002234
      dxz     :     0.000476
      dyz     :     0.000457
      dx2y2   :     0.000285
      dxy     :     0.000333



                     *******************************
                     * LOEWDIN POPULATION ANALYSIS *
                     *******************************

----------------------
LOEWDIN ATOMIC CHARGES
----------------------
   0 O :    0.065222
   1 C :   -0.223134
   2 C :    0.167551
   3 H :    0.023367
   4 H :   -0.011888
   5 H :   -0.009204
   6 H :   -0.011914

-------------------------------
LOEWDIN REDUCED ORBITAL CHARGES
-------------------------------
  0 O s       :     3.367432  s :     3.367432
      pz      :     1.367565  p :     4.317845
      px      :     1.492637
      py      :     1.457642
      dz2     :     0.027784  d :     0.243203
      dxz     :     0.010403
      dyz     :     0.068455
      dx2y2   :     0.058875
      dxy     :     0.077686
      f0      :     0.000559  f :     0.006298
      f+1     :     0.000170
      f-1     :     0.001013
      f+2     :     0.001099
      f-2     :     0.000566
      f+3     :     0.001578
      f-3     :     0.001314

  1 C s       :     2.708426  s :     2.708426
      pz      :     0.740949  p :     2.438634
      px      :     0.828193
      py      :     0.869493
      dz2     :     0.100544  d :     0.976673
      dxz     :     0.120580
      dyz     :     0.229768
      dx2y2   :     0.231714
      dxy     :     0.294067
      f0      :     0.006682  f :     0.099401
      f+1     :     0.006453
      f-1     :     0.015378
      f+2     :     0.019526
      f-2     :     0.008833
      f+3     :     0.024076
      f-3     :     0.018454

  2 C s       :     2.652839  s :     2.652839
      pz      :     0.918925  p :     2.733680
      px      :     0.897334
      py      :     0.917421
      dz2     :     0.040504  d :     0.416418
      dxz     :     0.124088
      dyz     :     0.071929
      dx2y2   :     0.090511
      dxy     :     0.089385
      f0      :     0.004123  f :     0.029513
      f+1     :     0.004302
      f-1     :     0.002468
      f+2     :     0.003663
      f-2     :     0.004495
      f+3     :     0.005144
      f-3     :     0.005318

  3 H s       :     0.716087  s :     0.716087
      pz      :     0.085152  p :     0.233963
      px      :     0.076545
      py      :     0.072266
      dz2     :     0.004550  d :     0.026584
      dxz     :     0.006624
      dyz     :     0.006320
      dx2y2   :     0.004628
      dxy     :     0.004462

  4 H s       :     0.698782  s :     0.698782
      pz      :     0.087367  p :     0.282601
      px      :     0.076926
      py      :     0.118308
      dz2     :     0.004724  d :     0.030506
      dxz     :     0.002545
      dyz     :     0.008394
      dx2y2   :     0.007133
      dxy     :     0.007710

  5 H s       :     0.697414  s :     0.697414
      pz      :     0.100090  p :     0.280801
      px      :     0.084385
      py      :     0.096326
      dz2     :     0.007409  d :     0.030989
      dxz     :     0.006357
      dyz     :     0.006507
      dx2y2   :     0.005444
      dxy     :     0.005271

  6 H s       :     0.698786  s :     0.698786
      pz      :     0.108069  p :     0.282620
      px      :     0.093106
      py      :     0.081445
      dz2     :     0.008279  d :     0.030508
      dxz     :     0.007900
      dyz     :     0.006448
      dx2y2   :     0.003696
      dxy     :     0.004183



                      *****************************
                      * MAYER POPULATION ANALYSIS *
                      *****************************

  NA   - Mulliken gross atomic population
  ZA   - Total nuclear charge
  QA   - Mulliken gross atomic charge
  VA   - Mayer's total valence
  BVA  - Mayer's bonded valence
  FA   - Mayer's free valence

  ATOM       NA         ZA         QA         VA         BVA        FA
  0 O      8.4748     8.0000    -0.4748     1.8102     1.8102     0.0000
  1 C      5.7630     6.0000     0.2370     3.4582     3.4582     0.0000
  2 C      6.6954     6.0000    -0.6954     3.7461     3.7461     0.0000
  3 H      0.7571     1.0000     0.2429     0.9790     0.9790     0.0000
  4 H      0.7758     1.0000     0.2242     1.0030     1.0030     0.0000
  5 H      0.7581     1.0000     0.2419     1.0249     1.0249     0.0000
  6 H      0.7759     1.0000     0.2241     1.0030     1.0030     0.0000

  Mayer bond orders larger than 0.100000
B(  0-O ,  1-C ) :   1.7705 B(  1-C ,  2-C ) :   0.7629 B(  1-C ,  3-H ) :   0.9840 
B(  2-C ,  4-H ) :   0.9935 B(  2-C ,  5-H ) :   0.9571 B(  2-C ,  6-H ) :   0.9935 


-------
TIMINGS
-------

Total SCF time: 0 days 0 hours 0 min 5 sec 

Total time                  ....       5.269 sec
Sum of individual times     ....       5.242 sec  ( 99.5%)

SCF preparation             ....       1.054 sec  ( 20.0%)
Fock matrix formation       ....       3.960 sec  ( 75.2%)
  Startup                   ....       0.728 sec  ( 18.4% of F)
  Split-RI-J                ....       0.417 sec  ( 10.5% of F)
  Chain of spheres X        ....       2.143 sec  ( 54.1% of F)
  XC integration            ....       0.630 sec  ( 15.9% of F)
    XC Preparation          ....       0.000 sec  (  0.0% of XC)
    Basis function eval.    ....       0.074 sec  ( 11.8% of XC)
    Density eval.           ....       0.171 sec  ( 27.1% of XC)
    XC-Functional eval.     ....       0.028 sec  (  4.5% of XC)
    XC-Potential eval.      ....       0.264 sec  ( 42.0% of XC)
Diagonalization             ....       0.000 sec  (  0.0%)
Density matrix formation    ....       0.023 sec  (  0.4%)
Total Energy calculation    ....       0.020 sec  (  0.4%)
Population analysis         ....       0.013 sec  (  0.3%)
Orbital Transformation      ....       0.020 sec  (  0.4%)
Orbital Orthonormalization  ....       0.000 sec  (  0.0%)
DIIS solution               ....       0.107 sec  (  2.0%)
SOSCF solution              ....       0.044 sec  (  0.8%)
Finished LeanSCF after   5.3 sec

Maximum memory used throughout the entire LEANSCF-calculation: 13.5 MB
[1741191900.634950] [ohm:216641:0]        ib_iface.c:1059 UCX  ERROR ibv_create_cq(cqe=256) failed: Connection timed out
[1741191900.652545] [ohm:216639:0]        ib_iface.c:1059 UCX  ERROR ibv_create_cq(cqe=256) failed: Connection timed out
[1741191900.655979] [ohm:216643:0]        ib_iface.c:1059 UCX  ERROR ibv_create_cq(cqe=256) failed: Connection timed out
[1741191900.658866] [ohm:216642:0]        ib_iface.c:1059 UCX  ERROR ibv_create_cq(cqe=256) failed: Connection timed out
[1741191900.681924] [ohm:216646:0]        ib_iface.c:1059 UCX  ERROR ibv_create_cq(cqe=256) failed: Connection timed out
[1741191900.697345] [ohm:216638:0]        ib_iface.c:1059 UCX  ERROR ibv_create_cq(cqe=256) failed: Connection timed out
[1741191900.701817] [ohm:216640:0]        ib_iface.c:1059 UCX  ERROR ibv_create_cq(cqe=256) failed: Connection timed out
[1741191900.723088] [ohm:216648:0]        ib_iface.c:1059 UCX  ERROR ibv_create_cq(cqe=256) failed: Connection timed out
[1741191900.731688] [ohm:216645:0]        ib_iface.c:1059 UCX  ERROR ibv_create_cq(cqe=256) failed: Connection timed out
[1741191900.733497] [ohm:216657:0]        ib_iface.c:1059 UCX  ERROR ibv_create_cq(cqe=256) failed: Connection timed out
[1741191900.780459] [ohm:216644:0]        ib_iface.c:1059 UCX  ERROR ibv_create_cq(cqe=256) failed: Connection timed out
[1741191900.782471] [ohm:216665:0]        ib_iface.c:1059 UCX  ERROR ibv_create_cq(cqe=256) failed: Connection timed out
[1741191900.783238] [ohm:216672:0]        ib_iface.c:1059 UCX  ERROR ibv_create_cq(cqe=256) failed: Connection timed out
[1741191900.787033] [ohm:216668:0]        ib_iface.c:1059 UCX  ERROR ibv_create_cq(cqe=256) failed: Connection timed out
[1741191900.800514] [ohm:216651:0]        ib_iface.c:1059 UCX  ERROR ibv_create_cq(cqe=256) failed: Connection timed out
[1741191900.804945] [ohm:216669:0]        ib_iface.c:1059 UCX  ERROR ibv_create_cq(cqe=256) failed: Connection timed out


           ************************************************************
           *        Program running with 16 parallel MPI-processes    *
           *              working on a common directory               *
           ************************************************************

------------------------------------------------------------------------------
                         ORCA PROPERTY INTEGRAL CALCULATIONS
------------------------------------------------------------------------------

GBWName                                   ... orca.gbw
Number of atoms                           ...      7
Number of basis functions                 ...    182
Max core memory                           ...   1024 MB

Dipole integrals                          ... YES
Quadrupole integrals                      ...  NO
Linear momentum integrals                 ... YES
Angular momentum integrals                ... YES
Higher moments length integrals           ...  NO
Higher moments velocity integrals         ...  NO
Kinetic energy integrals                  ...  NO
GIAO right hand sides                     ...  NO
GIAO dipole derivative integrals          ...  NO
SOC integrals                             ...  NO
EPR diamagnetic integrals (GIAO)          ...  NO
EPR gauge integrals                       ...  NO
Field gradient integrals                  ...  NO (   0 nuclei)
Spin-dipole/Fermi contact integrals       ...  NO (   0 nuclei)
Contact density integrals                 ...  NO (   0 nuclei)
Nucleus-orbit integrals                   ...  NO (   0 nuclei)
Geometric perturbations                   ...  NO (   7 nuclei)

Choice of electric origin   ... Center of mass
Position of electric origin ... (  1.1566,  0.2640, -0.0337) 
Choice of magnetic origin   ... GIAO
Position of magnetic origin ... (  0.0000,  0.0000,  0.0000) 

Calculating integrals                     ... Electric Dipole (Length)     done (  0.2 sec)
Calculating integrals                     ... Linear Momentum              done (  0.0 sec)
Calculating integrals                     ... Angular Momentum  (ElOri)    done (  0.0 sec)

Property integrals calculated in   0.2 sec

Maximum memory used throughout the entire PROPINT-calculation: 10.1 MB
[1741191902.640823] [ohm:216724:0]        ib_iface.c:1059 UCX  ERROR ibv_create_cq(cqe=256) failed: Connection timed out
[1741191902.641941] [ohm:216722:0]        ib_iface.c:1059 UCX  ERROR ibv_create_cq(cqe=256) failed: Connection timed out
[1741191902.668529] [ohm:216726:0]        ib_iface.c:1059 UCX  ERROR ibv_create_cq(cqe=256) failed: Connection timed out
[1741191902.670263] [ohm:216729:0]        ib_iface.c:1059 UCX  ERROR ibv_create_cq(cqe=256) failed: Connection timed out
[1741191902.693910] [ohm:216740:0]        ib_iface.c:1059 UCX  ERROR ibv_create_cq(cqe=256) failed: Connection timed out
[1741191902.721487] [ohm:216725:0]        ib_iface.c:1059 UCX  ERROR ibv_create_cq(cqe=256) failed: Connection timed out
[1741191902.722298] [ohm:216736:0]        ib_iface.c:1059 UCX  ERROR ibv_create_cq(cqe=256) failed: Connection timed out
[1741191902.723088] [ohm:216721:0]        ib_iface.c:1059 UCX  ERROR ibv_create_cq(cqe=256) failed: Connection timed out
[1741191902.726598] [ohm:216727:0]        ib_iface.c:1059 UCX  ERROR ibv_create_cq(cqe=256) failed: Connection timed out
[1741191902.737312] [ohm:216723:0]        ib_iface.c:1059 UCX  ERROR ibv_create_cq(cqe=256) failed: Connection timed out
[1741191902.746628] [ohm:216732:0]        ib_iface.c:1059 UCX  ERROR ibv_create_cq(cqe=256) failed: Connection timed out
[1741191902.752357] [ohm:216753:0]        ib_iface.c:1059 UCX  ERROR ibv_create_cq(cqe=256) failed: Connection timed out
[1741191902.752415] [ohm:216760:0]        ib_iface.c:1059 UCX  ERROR ibv_create_cq(cqe=256) failed: Connection timed out
[1741191902.760933] [ohm:216745:0]        ib_iface.c:1059 UCX  ERROR ibv_create_cq(cqe=256) failed: Connection timed out
[1741191902.774098] [ohm:216757:0]        ib_iface.c:1059 UCX  ERROR ibv_create_cq(cqe=256) failed: Connection timed out
[1741191902.779437] [ohm:216738:0]        ib_iface.c:1059 UCX  ERROR ibv_create_cq(cqe=256) failed: Connection timed out


           ************************************************************
           *        Program running with 16 parallel MPI-processes    *
           *              working on a common directory               *
           ************************************************************
------------------------------------------------------------------------------
                        ORCA TD-DFT/TDA CALCULATION
------------------------------------------------------------------------------

Input orbitals are from        ... orca.gbw
CI-vector output               ... orca.cis
Solver                         ... FN-2001
Tamm-Dancoff approximation     ... operative
CIS-Integral strategy          ... AO-integrals
Integral handling              ... AO integral Direct
Max. core memory used          ... 512 MB
Reference state                ... RHF
Generation of triplets         ... off
Follow IRoot                   ... off
Number of operators            ... 1
Orbital ranges used for CIS calculation:
 Operator 0:  Orbitals   3... 11  to  12...181
XAS localization array:
 Operator 0:  Orbitals  -1... -1

-------------------
XC-INTEGRATION GRID
-------------------

General Integration Accuracy     IntAcc      ... 3.467
Radial Grid Type                 RadialGrid  ... OptM3 with GC (2021)
Angular Grid (max. ang.)         AngularGrid ... 1 (Lebedev-50)
Angular grid pruning method      GridPruning ... 4 (adaptive)
Weight generation scheme         WeightScheme... mBecke (2022)
Basis function cutoff            BFCut       ... 1.0000e-11
Integration weight cutoff        WCut        ... 1.0000e-14
Partially contracted basis set               ... off
Rotationally invariant grid construction     ... off
Angular grids for H and He will be reduced by one unit
Diffuse basis detected: some atoms will have their outermost
                        angular grid increased by 1.

Total number of grid points                  ...     4737
Total number of batches                      ...       76
Average number of points per batch           ...       62
Average number of grid points per atom       ...      677

---------------------
COSX-INTEGRATION GRID
---------------------

General Integration Accuracy     IntAcc      ... 3.067
Radial Grid Type                 RadialGrid  ... OptM3 with GC (2021)
Angular Grid (max. ang.)         AngularGrid ... 1 (Lebedev-50)
Angular grid pruning method      GridPruning ... 4 (adaptive)
Weight generation scheme         WeightScheme... mBecke (2022)
Basis function cutoff            BFCut       ... 1.0000e-11
Integration weight cutoff        WCut        ... 1.0000e-14
Partially contracted basis set               ... on
Rotationally invariant grid construction     ... off
Angular grids for H and He will be reduced by one unit
Diffuse basis detected: some atoms will have their outermost
                        angular grid increased by 1.

Total number of grid points                  ...     2157
Total number of batches                      ...       22
Average number of points per batch           ...       98
Average number of grid points per atom       ...      308

---------------
TD-DFT XC SETUP
---------------

DFT calculation                         ... on
Name of the grid file                   ... orca.grid_cis.tmp
RI-approximation                        ... on
Aux-basis dimension                     ... 0
Functional (TD-DFT)
  Functional kind                       .... Exchange-Correlation
  Functional name                       .... wB97M-V exchange-correlation functional
  Functional family                     .... Hybrid MGGA
  Functional refs                              
    [ 0] N. Mardirossian and M. Head-Gordon.,  J. Chem. Phys. 144, 214110 (2016), doi: 10.1063/1.4952647
  Fraction of HF Exchange (short range) .... 0.1500
  Fraction of HF Exchange (long range)  .... 1.0000
  Range separation parameter mu         .... 0.3000
  Functional external parameters        .... 17
    Parameter  0 _cx00      =  8.500000e-01 : u^00 coefficient for exchange
    Parameter  1 _cx01      =  1.007000e+00 : u^01 coefficient for exchange
    Parameter  2 _cx10      =  2.590000e-01 : u^10 coefficient for exchange
    Parameter  3 _css00     =  4.430000e-01 : u^00 coefficient for same-spin correlation
    Parameter  4 _css04     = -1.437000e+00 : u^04 coefficient for same-spin correlation
    Parameter  5 _css10     = -4.535000e+00 : u^10 coefficient for same-spin correlation
    Parameter  6 _css20     = -3.390000e+00 : u^20 coefficient for same-spin correlation
    Parameter  7 _css43     =  4.278000e+00 : u^43 coefficient for same-spin correlation
    Parameter  8 _cos00     =  1.000000e+00 : u^00 coefficient for opposite-spin correlation
    Parameter  9 _cos10     =  1.358000e+00 : u^10 coefficient for opposite-spin correlation
    Parameter 10 _cos20     =  2.924000e+00 : u^20 coefficient for opposite-spin correlation
    Parameter 11 _cos21     = -8.812000e+00 : u^21 coefficient for opposite-spin correlation
    Parameter 12 _cos60     = -1.390000e+00 : u^60 coefficient for opposite-spin correlation
    Parameter 13 _cos61     =  9.142000e+00 : u^61 coefficient for opposite-spin correlation
    Parameter 14 _alpha     =  1.000000e+00 : fraction of HF exchange
    Parameter 15 _beta      = -8.500000e-01 : fraction of short-range exchange
    Parameter 16 _omega     =  3.000000e-01 : range-separation constant
Hybrid DFT                              ... on
   Exchange mixing (TD-DFT)             ...  0.150
   GGA exch. scaling (TD-DFT)           ...  0.000
   GGA corr. scaling (TD-DFT)           ...  1.000
Range-Separated Exchange                ... on
   Range Range separation parameter mu  .... 0.300
   Max. amount of RS exchange (TD-DFT)  ...  0.850

Building densities             ... done
Calculating rho(r) on the grid ... done
Building xc-kernel on the grid ... done
                    *** TD-DFT CALCULATION INITIALIZED ***

------------------------
DAVIDSON-DIAGONALIZATION
------------------------

Dimension of the eigenvalue problem            ...   1530
Number of roots to be determined               ...      4
Maximum size of the expansion space            ...     40
Maximum number of iterations                   ...    100
Convergence tolerance for the residual         ...    2.500e-07
Convergence tolerance for the energies         ...    2.500e-07
Orthogonality tolerance                        ...    1.000e-14
Level Shift                                    ...    0.000e+00
Constructing the preconditioner                ... o.k.
Building the initial guess                     ... o.k.
Number of trial vectors determined             ...     40


                       ****Iteration    0****
   Time for iteration     :  TOTAL=0.5 TRAFO=0.0 RIJ=0.1 COSX=0.2 XC=0.1
   Size of expansion space: 12
   Lowest Energy          :     0.168275165277
   Maximum Energy change  :     0.296399887042 (vector 3)
   Maximum residual norm  :     0.004357823552

                       ****Iteration    1****
   Time for iteration     :  TOTAL=0.2 TRAFO=0.0 RIJ=0.0 COSX=0.1 XC=0.0
   Size of expansion space: 16
   Lowest Energy          :     0.159878627670
   Maximum Energy change  :     0.008396537606 (vector 0)
   Maximum residual norm  :     0.000456487473

                       ****Iteration    2****
   Time for iteration     :  TOTAL=0.2 TRAFO=0.0 RIJ=0.0 COSX=0.1 XC=0.0
   Size of expansion space: 20
   Lowest Energy          :     0.159543031635
   Maximum Energy change  :     0.000504789708 (vector 1)
   Maximum residual norm  :     0.000025435221

                       ****Iteration    3****
   Time for iteration     :  TOTAL=0.2 TRAFO=0.0 RIJ=0.0 COSX=0.1 XC=0.0
   Size of expansion space: 24
   Lowest Energy          :     0.159519161612
   Maximum Energy change  :     0.000038948120 (vector 1)
   Maximum residual norm  :     0.000002875274

                       ****Iteration    4****
   Time for iteration     :  TOTAL=0.2 TRAFO=0.0 RIJ=0.0 COSX=0.1 XC=0.0
   Size of expansion space: 28
   Lowest Energy          :     0.159518091510
   Maximum Energy change  :     0.000004956666 (vector 3)
   Maximum residual norm  :     0.000000475437

                       ****Iteration    5****
   Time for iteration     :  TOTAL=0.2 TRAFO=0.0 RIJ=0.0 COSX=0.1 XC=0.0
   Size of expansion space: 32
   Lowest Energy          :     0.159518055246
   Maximum Energy change  :     0.000000656018 (vector 3)
   Maximum residual norm  :     0.000000136637

      *** CONVERGENCE OF RESIDUAL NORM REACHED ***

Storing the converged CI vectors               ... orca.cis1

                 *** DAVIDSON DONE ***

Total time for solving the CIS problem:     1.927sec

------------------------------------
TD-DFT/TDA EXCITED STATES (SINGLETS)
------------------------------------

the weight of the individual excitations are printed if larger than 1.0e-02

STATE  1:  E=   0.159518 au      4.341 eV    35010.2 cm**-1 <S**2> =   0.000000 Mult 1
    11a ->  13a  :     0.970627 (c= -0.98520401)
    11a ->  25a  :     0.011606 (c= -0.10772906)

STATE  2:  E=   0.246640 au      6.711 eV    54131.3 cm**-1 <S**2> =   0.000000 Mult 1
    11a ->  12a  :     0.809368 (c= -0.89964906)
    11a ->  14a  :     0.116859 (c= -0.34184691)
    11a ->  15a  :     0.015012 (c=  0.12252144)
    11a ->  18a  :     0.011785 (c=  0.10855944)
    11a ->  26a  :     0.016467 (c= -0.12832220)

STATE  3:  E=   0.278663 au      7.583 eV    61159.4 cm**-1 <S**2> =   0.000000 Mult 1
    11a ->  12a  :     0.069177 (c= -0.26301551)
    11a ->  14a  :     0.710605 (c=  0.84297393)
    11a ->  15a  :     0.124343 (c=  0.35262357)
    11a ->  17a  :     0.048241 (c=  0.21963752)
    11a ->  29a  :     0.012551 (c= -0.11203145)

STATE  4:  E=   0.290861 au      7.915 eV    63836.7 cm**-1 <S**2> =   0.000000 Mult 1
    11a ->  16a  :     0.942051 (c=  0.97059307)
    11a ->  19a  :     0.032516 (c=  0.18032271)


-----------------------------
TD-DFT/TDA-EXCITATION SPECTRA
-----------------------------

Center of mass = (  1.1566,  0.2640, -0.0337)
Generating CIS transition densities           ... done

----------------------------------------------------------------------------------------------------
                     ABSORPTION SPECTRUM VIA TRANSITION ELECTRIC DIPOLE MOMENTS    
----------------------------------------------------------------------------------------------------
     Transition      Energy     Energy  Wavelength fosc(D2)      D2        DX        DY        DZ   
                      (eV)      (cm-1)    (nm)                 (au**2)    (au)      (au)      (au)  
----------------------------------------------------------------------------------------------------
  0-1A  ->  1-1A    4.340707   35010.2   285.6   0.000064172   0.00060   0.01343  -0.01061  -0.01762
  0-1A  ->  2-1A    6.711426   54131.3   184.7   0.013261773   0.08065  -0.08848  -0.25729   0.08141
  0-1A  ->  3-1A    7.582793   61159.4   163.5   0.068419270   0.36829  -0.38573   0.23413  -0.40582
  0-1A  ->  4-1A    7.914741   63836.7   156.6   0.007803008   0.04024   0.10869  -0.08533  -0.14541

----------------------------------------------------------------------------------------------------
                     ABSORPTION SPECTRUM VIA TRANSITION VELOCITY DIPOLE MOMENTS    
----------------------------------------------------------------------------------------------------
     Transition      Energy     Energy  Wavelength fosc(P2)      P2        PX        PY        PZ   
                      (eV)      (cm-1)    (nm)                 (au**2)    (au)      (au)      (au)  
----------------------------------------------------------------------------------------------------
  0-1A  ->  1-1A    4.340707   35010.2   285.6   0.000692562   0.00017  -0.00699   0.00548   0.00932
  0-1A  ->  2-1A    6.711426   54131.3   184.7   0.009295060   0.00344   0.02238   0.05249  -0.01352
  0-1A  ->  3-1A    7.582793   61159.4   163.5   0.043679262   0.01826   0.09322  -0.04052   0.08902
  0-1A  ->  4-1A    7.914741   63836.7   156.6   0.003580779   0.00156  -0.02162   0.01684   0.02848

------------------------------------------------------------------------------------------
                     CD SPECTRUM VIA TRANSITION ELECTRIC DIPOLE MOMENTS    
------------------------------------------------------------------------------------------
     Transition      Energy     Energy  Wavelength    R        MX        MY        MZ   
                      (eV)      (cm-1)    (nm)   (1e40*cgs)   (au)      (au)      (au)  
------------------------------------------------------------------------------------------
  0-1A  ->  1-1A    4.340707   35010.2   285.6   -0.10529  -0.16572  -0.52720   0.17848
  0-1A  ->  2-1A    6.711426   54131.3   184.7   -0.01880   0.10942  -0.08661  -0.15432
  0-1A  ->  3-1A    7.582793   61159.4   163.5    0.02316  -0.03951   0.03121   0.05568
  0-1A  ->  4-1A    7.914741   63836.7   156.6    0.15961  -0.05361  -0.02180  -0.02495

------------------------------------------------------------------------------------------
                     CD SPECTRUM VIA TRANSITION VELOCITY DIPOLE MOMENTS    
------------------------------------------------------------------------------------------
     Transition      Energy     Energy  Wavelength    R        MX        MY        MZ   
                      (eV)      (cm-1)    (nm)   (1e40*cgs)   (au)      (au)      (au)  
------------------------------------------------------------------------------------------
  0-1A  ->  1-1A    4.340707   35010.2   285.6   -0.20292  -0.16572  -0.52720   0.17848
  0-1A  ->  2-1A    6.711426   54131.3   184.7   -0.02041   0.10942  -0.08661  -0.15432
  0-1A  ->  3-1A    7.582793   61159.4   163.5    0.01490  -0.03951   0.03121   0.05568
  0-1A  ->  4-1A    7.914741   63836.7   156.6    0.13188  -0.05361  -0.02180  -0.02495

Total run time:        3.995 sec

           *** ORCA-CIS/TD-DFT FINISHED WITHOUT ERROR ***
-----------------------
CIS/TD-DFT TOTAL ENERGY
-----------------------

    E(SCF)  =   -153.926247379 Eh
    DE(CIS) =      0.159518055 Eh (Root  1)
    ----------------------------- ---------
    E(tot)  =   -153.766729324 Eh


------------------------
TD-DFT GRADIENT XC SETUP
------------------------

Building densities                     ... done
Calculating rho(r) on the grid         ... done
Building xc-kernel on the grid         ... done
Building xc 3rd derivative on the grid ... done
                *** TD-DFT GRADIENT CALCULATION INITIALIZED ***

--------------------------
TD-DFT/TDA RELAXED DENSITY
--------------------------

Reference wavefunction             ... RHF
State of interest                  ... 1
Basis dimension                    ... 182
DFT-XC contribution needed         ... YES
RI-approximation                   ... YES
Do Coulomb                         ... YES
Do Exchange                        ... YES
Need Hartree-Fock Exchange         ... YES
facj, facx                         ...  2.000, -0.150
Conventional                       ... NO
Range separation                   ... YES
Triplet state                      ... NO
Spin Flip                          ... NO
CIS-vectors being read from        ... orca.cis
 => Number of Vectors found: 4
 => Orbital Window: 3...11 -> 12...181

Reading the CIS file                     ... done
Norm of the CI vector                    ... 1.000000000
Making the CIS (pseudo)densities         ... done
Making operators G(D) and Q(T)           ... (SHARK-ok)done
Transforming the Fock operators          ... done
Making the frozen-core relaxed density   ... done
Constructing the G(H) operator           ... (SHARK-ok)done
Transforming the G(H) operator           ... done
Calculating the CIS Lagrangian           ... done
Solving the Z-vector equations           ... 

Using XC Grid                  ... (orca.grid_cpscf.tmp) 
Recalculating density on grid  ... (orca.grho_cpscf0.tmp) done
Calculating the xc-kernel      ... (orca.fxc_cpscf0.tmp) done

-------------------
SHARK CP-SCF DRIVER
-------------------

Dimension of the orbital basis          ...    182
Dimension of the CPSCF-problem          ...   2040
Number of operators                     ...      1
Max. number of iterations               ...    128
Convergence Tolerance                   ... 1.0e-04
Number of perturbations                 ...      1
Perturbation type                       ... REAL

----------------------------
POPLE LINEAR EQUATION SOLVER
----------------------------

  ITERATION   0:   ||err||_max =   9.7606e-01 (   0.1 sec)
  ITERATION   1:   ||err||_max =   3.5491e-02 (   0.1 sec)
  ITERATION   2:   ||err||_max =   1.0455e-02 (   0.2 sec)
  ITERATION   3:   ||err||_max =   2.7256e-03 (   0.2 sec)
  ITERATION   4:   ||err||_max =   7.3122e-04 (   0.2 sec)
  ITERATION   5:   ||err||_max =   2.1389e-04 (   0.2 sec)
  ITERATION   6:   ||err||_max =   4.5399e-05 (   0.2 sec)

Finalizing the relaxed density           ... done
Storing the relaxed density              ... done
Constructing the G(Z) operator           ... (SHARK-ok)done
Adding the XC terms                      ... done
Transforming the G(Z) operator           ... done
Making the W-matrix                      ... done
Finalizing the W-matrix                  ... done
Transforming the W-matrix                ... done
Nuc. rep. gradient        (SHARK) ... done (  0.0 sec)
HCore & Overlap gradient  (SHARK) ... done (  0.0 sec)
Split-RIJ-J gradient      (SHARK) ... done (  0.1 sec)
COSX-gradient                     ... done (  2.0 sec)
Dispersion correction             ... done (  0.1 sec)

-------------------
DISPERSION GRADIENT
-------------------

   1   O   :    0.000207140    0.000256062    0.000003100
   2   C   :    0.000127952    0.000060067    0.000056976
   3   C   :   -0.000101403   -0.000061883   -0.000037150
   4   H   :    0.000186661    0.000001535    0.000131466
   5   H   :   -0.000078147   -0.000167043   -0.000094212
   6   H   :   -0.000160677   -0.000003528   -0.000111862
   7   H   :   -0.000181526   -0.000085209    0.000051682

Difference to translation invariance:
           :   -0.0000000000   -0.0000000000    0.0000000000

Difference to rotation invariance:
           :   -0.0000000000   -0.0000000000   -0.0000000000

Norm of the Dispersion gradient    ...    0.0005687204
RMS gradient                       ...    0.0001241050
MAX gradient                       ...    0.0002560616

                 ---------------------------
                 EXCITED STATE GRADIENT DONE
                 ---------------------------

------------------
CARTESIAN GRADIENT
------------------

   1   O   :   -0.032872851   -0.105056457    0.035749588
   2   C   :    0.018403741    0.101600366   -0.043940374
   3   C   :    0.008861153    0.010349354    0.000256753
   4   H   :    0.000600575   -0.004668112    0.003342472
   5   H   :    0.001443527   -0.001152393    0.003303718
   6   H   :    0.000693696    0.001001382   -0.000134434
   7   H   :    0.002806136   -0.002211752    0.001407179

Difference to translation invariance:
           :   -0.0000640218   -0.0001376126   -0.0000150988

Difference to rotation invariance:
           :    0.0003453398   -0.0013446365    0.0002232028

Norm of the Cartesian gradient     ...    0.1619790080
RMS gradient                       ...    0.0353467174
MAX gradient                       ...    0.1050564570

------------------------------------------------------------------------------
                  RELAXED CIS/TDA DENSITY POPULATION ANALYSIS
                                   IROOT 1
------------------------------------------------------------------------------
------------------------------------------------------------------------------
                           ORCA POPULATION ANALYSIS
[...]
      f+1     :     0.005444
      f-1     :     0.020191
      f+2     :     0.015519
      f-2     :     0.014298
      f+3     :     0.020052
      f-3     :     0.022387
  2 C s       :     2.644063  s :     2.644063
      pz      :     0.921657  p :     2.690664
      px      :     0.865328
      py      :     0.903679
      dz2     :     0.048048  d :     0.480186
      dxz     :     0.136188
      dyz     :     0.089854
      dx2y2   :     0.118302
      dxy     :     0.087793
      f0      :     0.003872  f :     0.032712
      f+1     :     0.006333
      f-1     :     0.002847
      f+2     :     0.003467
      f-2     :     0.005016
      f+3     :     0.006162
      f-3     :     0.005015
  3 H s       :     0.672380  s :     0.672380
      pz      :     0.109241  p :     0.272069
      px      :     0.088455
      py      :     0.074373
      dz2     :     0.008391  d :     0.030111
      dxz     :     0.006125
      dyz     :     0.005991
      dx2y2   :     0.004393
      dxy     :     0.005210
  4 H s       :     0.701654  s :     0.701654
      pz      :     0.088517  p :     0.284314
      px      :     0.076416
      py      :     0.119380
      dz2     :     0.004720  d :     0.030138
      dxz     :     0.002451
      dyz     :     0.008496
      dx2y2   :     0.007141
      dxy     :     0.007331
  5 H s       :     0.697486  s :     0.697486
      pz      :     0.101264  p :     0.282979
      px      :     0.085035
      py      :     0.096681
      dz2     :     0.007567  d :     0.030579
      dxz     :     0.006143
      dyz     :     0.006536
      dx2y2   :     0.005093
      dxy     :     0.005240
  6 H s       :     0.701675  s :     0.701675
      pz      :     0.108104  p :     0.284305
      px      :     0.096528
      py      :     0.079673
      dz2     :     0.007855  d :     0.030138
      dxz     :     0.008125
      dyz     :     0.006504
      dx2y2   :     0.003663
      dxy     :     0.003991


                      *****************************
                      * MAYER POPULATION ANALYSIS *
                      *****************************

  NA   - Mulliken gross atomic population
  ZA   - Total nuclear charge
  QA   - Mulliken gross atomic charge
  VA   - Mayer's total valence
  BVA  - Mayer's bonded valence
  FA   - Mayer's free valence

  ATOM       NA         ZA         QA         VA         BVA        FA
  0 O      8.3428     8.0000    -0.3428     1.9527     1.1140     0.8387
  1 C      5.8972     6.0000     0.1028     3.3641     2.5488     0.8153
  2 C      6.6419     6.0000    -0.6419     3.7034     3.5757     0.1276
  3 H      0.7819     1.0000     0.2181     0.9512     0.8534     0.0978
  4 H      0.7946     1.0000     0.2054     1.0355     1.0104     0.0252
  5 H      0.7467     1.0000     0.2533     0.9787     0.9777     0.0010
  6 H      0.7950     1.0000     0.2050     1.0359     1.0108     0.0251

  Mayer bond orders larger than 0.100000
B(  0-O ,  1-C ) :   1.0968 B(  1-C ,  2-C ) :   0.6492 B(  1-C ,  3-H ) :   0.8943 
B(  2-C ,  4-H ) :   1.0055 B(  2-C ,  5-H ) :   0.9347 B(  2-C ,  6-H ) :   1.0062 



-------
TIMINGS
-------

Total TD-DFT gradient time  ....        5.229 sec

Fock matrix formation       ....       1.167 sec  ( 22.3%)
  Coulomb formation         ....       0.891 sec  ( 76.3% of F)
  XC integration            ....       0.276 sec  ( 23.7% of F)
Z-vector equation           ....       1.204 sec  ( 23.0%)
Densities                   ....       0.000 sec  (  0.0%)
One electron gradient       ....       0.016 sec  (  0.3%)
Two electron gradient       ....       0.000 sec  (  0.0%)
RI-J Coulomb gradient       ....       0.108 sec  (  2.1%)
COSX gradient               ....       0.395 sec  (  7.6%)
XC gradient                 ....       2.036 sec  ( 38.9%)

Maximum memory used throughout the entire CIS-calculation: 34.9 MB
=> NOW LEAVING ORCA_CIS


-------------------------------------------------------------------------------
                          DFT DISPERSION CORRECTION                            
                                                                               
                              DFTD3 V3.1  Rev 1                                
                          USING Becke-Johnson damping                          
-------------------------------------------------------------------------------
The WB97M functional is recognized
Active option DFTDOPT                   ...         4   

molecular C6(AA) [au] = 394.991303 


            DFT-D V3
 parameters
 s6 scaling factor         :     1.0000 
 a1 scaling factor         :     0.5660 
 s8 scaling factor         :     0.3908 
 a2 scaling factor         :     3.1280 
 ad hoc parameters k1-k3   :    16.0000     1.3333    -4.0000 

 Edisp/kcal,au: -3.476806509670  -0.005540643261 
 E6   /kcal   :  -2.803061597 
 E8   /kcal   :  -0.673744913 
 % E8         :  19.378268850 

-------------------------   ----------------
Dispersion correction           -0.005540643
-------------------------   ----------------


-------------------------   --------------------
FINAL SINGLE POINT ENERGY      -153.772269967366
-------------------------   --------------------

[1741191913.291126] [ohm:216817:0]        ib_iface.c:1059 UCX  ERROR ibv_create_cq(cqe=256) failed: Connection timed out
[1741191913.293475] [ohm:216815:0]        ib_iface.c:1059 UCX  ERROR ibv_create_cq(cqe=256) failed: Connection timed out
[1741191913.309439] [ohm:216812:0]        ib_iface.c:1059 UCX  ERROR ibv_create_cq(cqe=256) failed: Connection timed out
[1741191913.317329] [ohm:216811:0]        ib_iface.c:1059 UCX  ERROR ibv_create_cq(cqe=256) failed: Connection timed out
[1741191913.321581] [ohm:216813:0]        ib_iface.c:1059 UCX  ERROR ibv_create_cq(cqe=256) failed: Connection timed out
[1741191913.323292] [ohm:216814:0]        ib_iface.c:1059 UCX  ERROR ibv_create_cq(cqe=256) failed: Connection timed out
[1741191913.349186] [ohm:216818:0]        ib_iface.c:1059 UCX  ERROR ibv_create_cq(cqe=256) failed: Connection timed out
[1741191913.349193] [ohm:216837:0]        ib_iface.c:1059 UCX  ERROR ibv_create_cq(cqe=256) failed: Connection timed out
[1741191913.349233] [ohm:216831:0]        ib_iface.c:1059 UCX  ERROR ibv_create_cq(cqe=256) failed: Connection timed out
[1741191913.349759] [ohm:216826:0]        ib_iface.c:1059 UCX  ERROR ibv_create_cq(cqe=256) failed: Connection timed out
[1741191913.351959] [ohm:216823:0]        ib_iface.c:1059 UCX  ERROR ibv_create_cq(cqe=256) failed: Connection timed out
[1741191913.353797] [ohm:216835:0]        ib_iface.c:1059 UCX  ERROR ibv_create_cq(cqe=256) failed: Connection timed out
[1741191913.356758] [ohm:216829:0]        ib_iface.c:1059 UCX  ERROR ibv_create_cq(cqe=256) failed: Connection timed out
[1741191913.358954] [ohm:216822:0]        ib_iface.c:1059 UCX  ERROR ibv_create_cq(cqe=256) failed: Connection timed out
[1741191913.358998] [ohm:216816:0]        ib_iface.c:1059 UCX  ERROR ibv_create_cq(cqe=256) failed: Connection timed out
[1741191913.363609] [ohm:216820:0]        ib_iface.c:1059 UCX  ERROR ibv_create_cq(cqe=256) failed: Connection timed out


           ************************************************************
           *        Program running with 16 parallel MPI-processes    *
           *              working on a common directory               *
           ************************************************************

------------------------------------------------------------------------------
                              ORCA PROPERTY CALCULATIONS
------------------------------------------------------------------------------

GBWName                                 ... orca.gbw
Number of atoms                         ...      7
Number of basis functions               ...    182
Max core memory                         ...   1024 MB

Electric properties:
Dipole moment                           ... YES
Quadrupole moment                       ...  NO
Static polarizability (Dipole/Dipole)   ...  NO
Static polarizability (Dipole/Quad.)    ...  NO
Static polarizability (Quad./Quad.)     ...  NO
Static polarizability (Velocity)        ...  NO

Atomic electric properties:
Dipole moment                           ...  NO
Quadrupole moment                       ...  NO
Static polarizability                   ...  NO

Choice of electric origin               ... Center of mass
Position of electric origin             ...     1.156608     0.264041    -0.033718

General magnetic properties:
Magnetizability                         ...  NO

EPR properties:
g-Tensor (aka g-matrix)                 ...  NO
Zero-Field splitting spin-orbit         ...  NO
Zero-field splitting spin-spin          ...  NO
Hyperfine couplings                     ...  NO (   0 nuclei)
Quadrupole couplings                    ...  NO (   0 nuclei)
Contact density                         ...  NO (   0 nuclei)

NMR properties:
Chemical shifts                         ...  NO (   0 nuclei)
Spin-rotation constants                 ...  NO (   0 nuclei)
Spin-spin couplings                     ...  NO (   0 nuclei,    0 pairs)

Choice of magnetic origin               ... GIAO
Position of magnetic origin             ...     0.000000     0.000000     0.000000

Properties with geometric perturbations:
SCF Hessian                             ...  NO
IR spectrum                             ...  NO
VCD spectrum                            ...  NO
X-ray spectroscopy properties:
SCF XES/XAS/RIXS spectra                ...  NO


-------------
DIPOLE MOMENT
-------------

Method             : SCF
Type of density    : Electron Density
Multiplicity       :   1
Irrep              :   0
Energy             :  -153.9262473793508548 Eh
Relativity type    : 
Basis              : AO
                                X                 Y                 Z
Electronic contribution:      2.141634709       2.463382072       0.135146732
Nuclear contribution   :     -2.599220626      -3.459042099       0.099321310
                        -----------------------------------------
Total Dipole Moment    :     -0.457585917      -0.995660027       0.234468042
                        -----------------------------------------
Magnitude (a.u.)       :      1.120579772
Magnitude (Debye)      :      2.848287423



--------------------
Rotational spectrum 
--------------------
 
Rotational constants in cm-1:             1.860936             0.346059             0.308302 
Rotational constants in MHz :         55789.462426         10374.592299          9242.668349 

Dipole components along the rotational axes: 
x,y,z [a.u.] :    -1.022299     0.458915    -0.000015 
x,y,z [Debye]:    -2.598478     1.166470    -0.000039 

 

-------------
DIPOLE MOMENT
-------------

Method             : TDA/CIS
Type of density    : Electron Density
Level              : Relaxed density
State              :   1
Multiplicity       :   1
Irrep              :   0
Energy             :     0.0000000000000000 Eh
Relativity type    : 
Basis              : AO
                                X                 Y                 Z
Electronic contribution:      2.265942223       2.807558527       0.029888152
Nuclear contribution   :     -2.599220626      -3.459042099       0.099321310
                        -----------------------------------------
Total Dipole Moment    :     -0.333278403      -0.651483572       0.129209463
                        -----------------------------------------
Magnitude (a.u.)       :      0.743101893
Magnitude (Debye)      :      1.888814907



--------------------
Rotational spectrum 
--------------------
 
Rotational constants in cm-1:             1.860936             0.346059             0.308302 
Rotational constants in MHz :         55789.462426         10374.592299          9242.668349 

Dipole components along the rotational axes: 
x,y,z [a.u.] :    -0.693578     0.266740    -0.000160 
x,y,z [Debye]:    -1.762935     0.677999    -0.000407 

 

Dipole moment calculation done in   0.0 sec 

Maximum memory used throughout the entire PROP-calculation: 7.3 MB
[1741191914.315398] [ohm:216898:0]        ib_iface.c:1059 UCX  ERROR ibv_create_cq(cqe=256) failed: Connection timed out
[1741191914.322747] [ohm:216894:0]        ib_iface.c:1059 UCX  ERROR ibv_create_cq(cqe=256) failed: Connection timed out
[1741191914.326653] [ohm:216896:0]        ib_iface.c:1059 UCX  ERROR ibv_create_cq(cqe=256) failed: Connection timed out
[1741191914.332809] [ohm:216900:0]        ib_iface.c:1059 UCX  ERROR ibv_create_cq(cqe=256) failed: Connection timed out
[1741191914.332943] [ohm:216899:0]        ib_iface.c:1059 UCX  ERROR ibv_create_cq(cqe=256) failed: Connection timed out
[1741191914.342477] [ohm:216902:0]        ib_iface.c:1059 UCX  ERROR ibv_create_cq(cqe=256) failed: Connection timed out
[1741191914.346914] [ohm:216897:0]        ib_iface.c:1059 UCX  ERROR ibv_create_cq(cqe=256) failed: Connection timed out
[1741191914.362905] [ohm:216911:0]        ib_iface.c:1059 UCX  ERROR ibv_create_cq(cqe=256) failed: Connection timed out
[1741191914.366381] [ohm:216901:0]        ib_iface.c:1059 UCX  ERROR ibv_create_cq(cqe=256) failed: Connection timed out
[1741191914.368181] [ohm:216906:0]        ib_iface.c:1059 UCX  ERROR ibv_create_cq(cqe=256) failed: Connection timed out
[1741191914.374112] [ohm:216919:0]        ib_iface.c:1059 UCX  ERROR ibv_create_cq(cqe=256) failed: Connection timed out
[1741191914.376277] [ohm:216904:0]        ib_iface.c:1059 UCX  ERROR ibv_create_cq(cqe=256) failed: Connection timed out
[1741191914.376338] [ohm:216916:0]        ib_iface.c:1059 UCX  ERROR ibv_create_cq(cqe=256) failed: Connection timed out
[1741191914.376339] [ohm:216895:0]        ib_iface.c:1059 UCX  ERROR ibv_create_cq(cqe=256) failed: Connection timed out
[1741191914.393696] [ohm:216908:0]        ib_iface.c:1059 UCX  ERROR ibv_create_cq(cqe=256) failed: Connection timed out
[1741191914.412059] [ohm:216921:0]        ib_iface.c:1059 UCX  ERROR ibv_create_cq(cqe=256) failed: Connection timed out

--------------------------------
SUGGESTED CITATIONS FOR THIS RUN
--------------------------------

Below you find a list of papers that are relevant to this ORCA run
We neither can nor want to force you to cite these papers, but we appreciate if you do
You receive ORCA, which is the product of decades of hard work by many enthusiastic individuals, for free
The only thing we kindly ask in return is that you cite our papers,
We deeply appreciate it, if you show your appreciation for ORCA by not just citing the generic ORCA reference.

Please note that relegating all ORCA citations to the supporting information does *not* help us.
SI sections are not indexed - citations you put there will not count into any citation statistics
But we need these citations in order to attract the funding resources that allow us to do what we are doing

Therefore, if you are a happy ORCA user, please consider citing a few of the papers listed below in the main body of your paper

In addition to the list printed below, the program has created the file orca.bibtex that contains the list in bibtex format
You can import this file easily into all common literature databanks and citation aid programs


List of essential papers. We consider these as the minimum necessary citations

  1. Neese,F.
     Software update: the ORCA program system, version 5.0
     WIRES Comput. Molec. Sci., 2022 12(1)e1606
     doi.org/10.1002/wcms.1606

List of papers to cite with high priority. The work reported in these papers was absolutely
necessary for this run to complete.
Our perspective: the developers of density functionals and basis sets usually get cited in chemistry papers
Good! But without the algorithms to do something with them, the functionals or basis sets would not do anything.
Hence, in our opinion, the algorithm design and method developments papers are equally worthy of getting cited

  1. Neese,F.; Olbrich,G.
     Efficient use of the resolution of the identity approximation in time-dependent density functional calculations with hybrid density functionals
     Chem. Phys. Lett., 2002 362 170-178
     doi.org/10.1016/s0009-2614(02)01053-9
  2. Neese,F.
     An improvement of the resolution of the identity approximation for the formation of the Coulomb matrix
     J. Comp. Chem., 2003 24(14)1740-1747
     doi.org/10.1002/jcc.10318
  3. Neese,F.; Wennmohs,F.; Hansen,A.; Becker,U.
     Efficient, approximate and parallel Hartree-Fock and hybrid DFT calculations. A 'chain-of-spheres' algorithm for the Hartree-Fock exchange
     Chem. Phys., 2009 356(1-3)98-109
     doi.org/10.1016/j.chemphys.2008.10.036
  4. Petrenko,T.; Kossmann,S.; Neese,F.
     Efficient time-dependent density functional theory approximations for hybrid density functionals: Analytical gradients and parallelization
     J. Chem. Phys., 2011 134 054116
     doi.org/10.1063/1.3533441
  5. Helmich-Paris,B.; de Souza,B.; Neese,F.; Izsák,R.
     An improved chain of spheres for exchange algorithm
     J. Chem. Phys., 2021 155 104109
     doi.org/doi: 10.1063/5.0058766.
  6. Neese,F.
     The SHARK Integral Generation and Digestion System
     J. Comp. Chem., 2022  1-16
     doi.org/10.1002/jcc.26942
  7. Lehtola,S.; Steigemann,C.; Oliveira,M.; Marques,M.
     Recent developments in Libxc - A comprehensive library of functionals for density functional theory
     Software X, 2018 7 
     doi.org/10.1016/j.softx.2017.11.002
  8. Grimme,S.; Antony,J.; Ehrlich,S.; Krieg,H.
     A consistent and accurate ab initio parametrization of density functional dispersion correction (DFT-D) for the 94 elements H-Pu
     J. Chem. Phys., 2010 132 154104-XXXX
     doi.org/10.1063/1.3382344
  9. Grimme,S.; Ehrlich,S.; Goerigk,L.
     Effect of the damping function in dispersion corrected density functional theory
     J. Comput. Chem., 2011 32(7)1456-1465
     doi.org/10.1002/jcc.21759

List of suggested additional citations. These are papers that are important in the 'surrounding' of 
of this run, or papers that preceded the highly important papers. If you like your results we are grateful for a citation.

  1. Izsak,R.; Neese,F.
     An overlap fitted chain of spheres exchange method
     J. Chem. Phys., 2011 135 144105
     doi.org/10.1063/1.3646921
  2. Izsak,R.; Hansen,A.; Neese,F.
     The resolution of identity and chain of spheres approximations for the LPNO-CCSD singles Fock term
     Molec. Phys., 2012 110 2413-2417
     doi.org/10.1080/00268976.2012.687466
  3. Neese,F.
     The ORCA program system
     WIRES Comput. Molec. Sci., 2012 2(1)73-78
     doi.org/10.1002/wcms.81
  4. Izsak,R.; Neese,F.; Klopper,W.
     Robust fitting techniques in the chain of spheres approximation to the Fock exchange: The role of the complementary space
     J. Chem. Phys., 2013 139 
     doi.org/10.1063/1.4819264
  5. Neese,F.
     Software update: the ORCA program system, version 4.0
     WIRES Comput. Molec. Sci., 2018 8(1)1-6
     doi.org/10.1002/wcms.1327
  6. Neese,F.; Wennmohs,F.; Becker,U.; Riplinger,C.
     The ORCA quantum chemistry program package
     J. Chem. Phys., 2020 152 Art. No. L224108
     doi.org/10.1063/5.0004608

List of optional additional citations

  1. Neese,F.
     Approximate second-order SCF convergence for spin unrestricted wavefunctions
     Chem. Phys. Lett., 2000 325(1-3)93-98
     doi.org/10.1016/s0009-2614(00)00662-x

Timings for individual modules:

Sum of individual times          ...       25.923 sec (=   0.432 min)
Startup calculation              ...        4.501 sec (=   0.075 min)  17.4 %
SCF iterations                   ...        7.635 sec (=   0.127 min)  29.5 %
Property integrals               ...        2.047 sec (=   0.034 min)   7.9 %
Property calculations            ...        1.050 sec (=   0.017 min)   4.0 %
CIS module                       ...       10.690 sec (=   0.178 min)  41.2 %
                             ****ORCA TERMINATED NORMALLY****
TOTAL RUN TIME: 0 days 0 hours 0 minutes 27 seconds 616 msec
