
                                 *****************
                                 * O   R   C   A *
                                 *****************

                                            #,                                       
                                            ###                                      
                                            ####                                     
                                            #####                                    
                                            ######                                   
                                           ########,                                 
                                     ,,################,,,,,                         
                               ,,#################################,,                 
                          ,,##########################################,,             
                       ,#########################################, ''#####,          
                    ,#############################################,,   '####,        
                  ,##################################################,,,,####,       
                ,###########''''           ''''###############################       
              ,#####''   ,,,,##########,,,,          '''####'''          '####       
            ,##' ,,,,###########################,,,                        '##       
           ' ,,###''''                  '''############,,,                           
         ,,##''                                '''############,,,,        ,,,,,,###''
      ,#''                                            '''#######################'''  
     '                                                          ''''####''''         
             ,#######,   #######,   ,#######,      ##                                
            ,#'     '#,  ##    ##  ,#'     '#,    #''#        ,####,   ,####,        
            ##       ##  ##   ,#'  ##            #'  '#       #'       #'  '#        
            ##       ##  #######   ##           ,######,      #####,   #    #        
            '#,     ,#'  ##    ##  '#,     ,#' ,#      #,     #,   #   #,  ,#        
             '#######'   ##     ##  '#######'  #'      '#     '####' # '####'        



                #########################################################
                #                        -***-                          #
                #          Department of theory and spectroscopy        #
                #                                                       #
                #                      Frank Neese                      #
                #                                                       #
                #     Directorship, Architecture, Infrastructure        #
                #                    SHARK, DRIVERS                     #
                #        Core code/Algorithms in most modules           #
                #                                                       #
                #        Max Planck Institute fuer Kohlenforschung      #
                #                Kaiser Wilhelm Platz 1                 #
                #                 D-45470 Muelheim/Ruhr                 #
                #                      Germany                          #
                #                                                       #
                #                  All rights reserved                  #
                #                        -***-                          #
                #########################################################


                         Program Version 6.0.0  -   RELEASE  -


 With contributions from (in alphabetic order):
   Daniel Aravena         : Magnetic Suceptibility
   Michael Atanasov       : Ab Initio Ligand Field Theory (pilot matlab implementation)
   Alexander A. Auer      : GIAO ZORA, VPT2 properties, NMR spectrum
   Ute Becker             : All parallelization in ORCA, NUMFREQ, NUMCALC
   Giovanni Bistoni       : ED, misc. LED, open-shell LED, HFLD
   Martin Brehm           : Molecular dynamics
   Dmytro Bykov           : pre 5.0 version of the SCF Hessian
   Marcos Casanova-Páez   : Triplet and SCS-CIS(D). UHF-(DLPNO)-IP/EA/STEOM-CCSD. UHF-CVS-IP/STEOM-CCSD
   Vijay G. Chilkuri      : MRCI spin determinant printing, contributions to CSF-ICE
   Pauline Colinet        : FMM embedding
   Dipayan Datta          : RHF DLPNO-CCSD density
   Achintya Kumar Dutta   : EOM-CC, STEOM-CC
   Nicolas Foglia         : Exact transition moments, OPA infrastructure, MCD improvements
   Dmitry Ganyushin       : Spin-Orbit,Spin-Spin,Magnetic field MRCI
   Miquel Garcia          : C-PCM and meta-GGA Hessian, CCSD/C-PCM, Gaussian charge scheme
   Tiago L. C. Gouveia    : GS-ROHF, GS-ROCIS
   Yang Guo               : DLPNO-NEVPT2, F12-NEVPT2, CIM, IAO-localization
   Andreas Hansen         : Spin unrestricted coupled pair/coupled cluster methods
   Ingolf Harden          : AUTO-CI MPn and infrastructure 
   Benjamin Helmich-Paris : MC-RPA, TRAH-(SCF,CASSCF), AVAS, COSX integrals, SCF dyn. polar.
   Lee Huntington         : MR-EOM, pCC
   Robert Izsak           : Overlap fitted RIJCOSX, COSX-SCS-MP3, EOM
   Riya Kayal             : Wick's Theorem for AUTO-CI, AUTO-CI UHF-CCSDT
   Emily Kempfer          : AUTO-CI, RHF CISDT and CCSDT
   Christian Kollmar      : KDIIS, OOCD, Brueckner-CCSD(T), CCSD density, CASPT2, CASPT2-K, improved NEVPT2
   Axel Koslowski         : Symmetry handling
   Simone Kossmann        : Meta GGA functionals, TD-DFT gradient, OOMP2, (MP2 Hessian; deprecated post 5.0)
   Lucas Lang             : DCDCAS
   Marvin Lechner         : AUTO-CI (C++ implementation), FIC-MRCC
   Spencer Leger          : CASSCF response
   Dagmar Lenk            : GEPOL surface, SMD, ORCA-2-JSON
   Dimitrios Liakos       : Extrapolation schemes; Compound Job, initial MDCI parallelization
   Dimitrios Manganas     : Further ROCIS development; embedding schemes. LFT, Crystal Embedding
   Dimitrios Pantazis     : SARC Basis sets
   Anastasios Papadopoulos: AUTO-CI, single reference methods and gradients
   Taras Petrenko         : pre 6.0 DFT Hessian and TD-DFT gradient, (ASA, deprecated), ECA, 1-Electron XAS/XES, NRVS
   Peter Pinski           : DLPNO-MP2, DLPNO-MP2 Gradient
   Christoph Reimann      : Effective Core Potentials
   Marius Retegan         : Local ZFS, SOC
   Christoph Riplinger    : Optimizer, TS searches, QM/MM, DLPNO-CCSD(T), (RO)-DLPNO pert. Triples
   Michael Roemelt        : Original ROCIS implementation
   Masaaki Saitow         : Open-shell DLPNO-CCSD energy and density
   Barbara Sandhoefer     : DKH picture change effects
   Kantharuban Sivalingam : CASSCF convergence/infrastructure, NEVPT2 and variants, FIC-MRCI
   Bernardo de Souza      : ESD, SOC TD-DFT
   Georgi Stoychev        : AutoAux, RI-MP2 NMR, DLPNO-MP2 response, X2C
   Van Anh Tran           : RI-MP2 g-tensors
   Willem Van den Heuvel  : Paramagnetic NMR
   Zikuan Wang            : NOTCH, Electric field optimization 
   Frank Wennmohs         : Technical directorship and infrastructure
   Hang Xu                : AUTO-CI-Response properties 


 We gratefully acknowledge several colleagues who have allowed us to
 interface, adapt or use parts of their codes:
   Stefan Grimme, W. Hujo, H. Kruse, P. Pracht,  : VdW corrections, initial TS optimization,
                  C. Bannwarth, S. Ehlert,         DFT functionals, gCP, sTDA/sTD-DF
                  L. Wittmann, M. Mueller
   Ed Valeev, F. Pavosevic, A. Kumar             : LibInt (2-el integral package), F12 methods
   Garnet Chan, S. Sharma, J. Yang, R. Olivares  : DMRG
   Ulf Ekstrom                                   : XCFun DFT Library
   Mihaly Kallay                                 : mrcc  (arbitrary order and MRCC methods)
   Frank Weinhold                                : gennbo (NPA and NBO analysis)
   Simon Mueller                                 : openCOSMO-RS
   Christopher J. Cramer and Donald G. Truhlar   : smd solvation model
   Lars Goerigk                                  : TD-DFT with DH, B97 family of functionals
   V. Asgeirsson, H. Jonsson                     : NEB implementation
   FAccTs GmbH                                   : IRC, NEB, NEB-TS, DLPNO-Multilevel, CI-OPT
                                                   MM, QMMM, 2- and 3-layer-ONIOM, Crystal-QMMM,
                                                   LR-CPCM, SF, NACMEs, symmetry and pop. for TD-DFT,
                                                   nearIR, NL-DFT gradient (VV10), updates on ESD,
                                                   ML-optimized integration grids, MBIS, APM,
                                                   GOAT, DOCKER, SOLVATOR, interface openCOSMO-RS
   S Lehtola, MJT Oliveira, MAL Marques          : LibXC Library
   Liviu Ungur et al                             : ANISO software


 Your calculation uses the libint2 library for the computation of 2-el integrals
 For citations please refer to: http://libint.valeyev.net

 Your ORCA version has been built with support for libXC version: 6.2.2
 For citations please refer to: https://libxc.gitlab.io

 This ORCA versions uses:
   CBLAS   interface :  Fast vector & matrix operations
   LAPACKE interface :  Fast linear algebra routines
   SCALAPACK package :  Parallel linear algebra routines
   Shared memory     :  Shared parallel matrices
   BLAS/LAPACK       :  OpenBLAS 0.3.27  USE64BITINT DYNAMIC_ARCH NO_AFFINITY Zen SINGLE_THREADED
        Core in use  :  Zen
   Copyright (c) 2011-2014, The OpenBLAS Project


Your calculation utilizes the atom-pairwise dispersion correction
with the Becke-Johnson damping scheme (D3BJ)


Warning: RI is on but no J-basis has been assigned. Assigning Def2/J (nothing to worry about!)
================================================================================

----- Orbital basis set information -----
Your calculation utilizes the basis: def2-TZVPPD
   F. Weigend and R. Ahlrichs, Phys. Chem. Chem. Phys. 7, 3297 (2005).
   D. Rappoport and F. Furche, J. Chem. Phys. 133, 134105 (2010)
   D. Rappoport, J. Chem. Phys. 155, 124102 (2021).

----- AuxJ basis set information -----
Your calculation utilizes the auxiliary basis: def2/J
   F. Weigend, Phys. Chem. Chem. Phys. 8, 1057 (2006).

================================================================================
                                        WARNINGS
                       Please study these warnings very carefully!
================================================================================

Using LibXC functional ID 531 : wB97M-V exchange-correlation functional
[ 1]  N. Mardirossian and M. Head-Gordon.,  J. Chem. Phys. 144, 214110 (2016)
Using LibXC functional ID 531 : wB97M-V exchange-correlation functional
[ 1]  N. Mardirossian and M. Head-Gordon.,  J. Chem. Phys. 144, 214110 (2016)

WARNING: B97M-V or wB97M-V functional requested.
  ===> : libXC variant has now been activated.
         Any manually given DFX/HFX/RangeSep scaling parameters are IGNORED!

Your calculation utilizes LibXC
 by S Lehtola, C Steigemann, MJT Oliveira & MAL Marques
Please cite in your paper:
 S Lehtola, C Steigemann, MJT Oliveira & MAL Marques, SoftwareX, 7, (2018), 1.
   


WARNING: your system is open-shell and RHF/RKS was chosen
  ===> : WILL SWITCH to UHF/UKS

INFO   : Checking CIS options ...

WARNING: CIS/ROCIS methods need fully converged wavefunctions
  ===> : Setting SCFConvForced true
         You can overwrite this default with %scf ConvForced false 


================================================================================
                                       INPUT FILE
================================================================================
NAME = orca.inp
|  1> ! Engrad def2-TZVPPD wB97M-D3BJ 
|  2> %pal nprocs 8 end%pal nprocs 64 end 
|  3> %tddft 
|  4>  Iroot 2 Nroots 3 
|  5> sf true 
|  6> end 
|  7> *xyz 0 3 
|  8> O   -0.61274034 0.00081252 0.59322898
|  9> C   0.54483775 0.57610644 0.12208745
| 10> C   1.38413132 -0.40856265 -0.5568119
| 11> H   1.08943595 0.94995522 0.95383057
| 12> H   0.25335276 1.42529105 -0.44686034
| 13> H   1.82868017 -1.13980975 0.04039208
| 14> H   1.54761978 -0.49265155 -1.59896494
| 15> *
| 16> 
| 17>                          ****END OF INPUT****
================================================================================

                     *******************************
                     * Energy+Gradient Calculation *
                     *******************************

---------------------------------
CARTESIAN COORDINATES (ANGSTROEM)
---------------------------------
  O     -0.612740    0.000813    0.593229
  C      0.544838    0.576106    0.122087
  C      1.384131   -0.408563   -0.556812
  H      1.089436    0.949955    0.953831
  H      0.253353    1.425291   -0.446860
  H      1.828680   -1.139810    0.040392
  H      1.547620   -0.492652   -1.598965

----------------------------
CARTESIAN COORDINATES (A.U.)
----------------------------
  NO LB      ZA    FRAG     MASS         X           Y           Z
   0 O     8.0000    0    15.999   -1.157911    0.001535    1.121040
   1 C     6.0000    0    12.011    1.029594    1.088683    0.230712
   2 C     6.0000    0    12.011    2.615629   -0.772072   -1.052222
   3 H     1.0000    0     1.008    2.058736    1.795155    1.802479
   4 H     1.0000    0     1.008    0.478767    2.693410   -0.844444
   5 H     1.0000    0     1.008    3.455705   -2.153928    0.076330
   6 H     1.0000    0     1.008    2.924578   -0.930977   -3.021606

--------------------------------
INTERNAL COORDINATES (ANGSTROEM)
--------------------------------
 O      0   0   0     0.000000000000     0.00000000     0.00000000
 C      1   0   0     1.375835916862     0.00000000     0.00000000
 C      2   1   0     1.461126702540   111.13789840     0.00000000
 H      2   1   3     1.062142517470   108.08420947   241.83769270
 H      2   1   3     1.062910903605   106.65646591   128.03568085
 H      3   2   1     1.043550954684   116.80934216   290.62274793
 H      3   2   1     1.058244952002   126.86033806   106.95845558

---------------------------
INTERNAL COORDINATES (A.U.)
---------------------------
 O      0   0   0     0.000000000000     0.00000000     0.00000000
 C      1   0   0     2.599953088082     0.00000000     0.00000000
 C      2   1   0     2.761129314760   111.13789840     0.00000000
 H      2   1   3     2.007158473212   108.08420947   241.83769270
 H      2   1   3     2.008610512572   106.65646591   128.03568085
 H      3   2   1     1.972025511145   116.80934216   290.62274793
 H      3   2   1     1.999793141888   126.86033806   106.95845558

---------------------
BASIS SET INFORMATION
---------------------
There are 3 groups of distinct atoms

 Group   1 Type O   : 12s7p3d1f contracted to 6s4p3d1f pattern {621111/4111/111/1}
 Group   2 Type C   : 12s6p3d1f contracted to 6s3p3d1f pattern {621111/411/111/1}
 Group   3 Type H   : 5s3p1d contracted to 3s3p1d pattern {311/111/1}

Atom   0O    basis set group =>   1
Atom   1C    basis set group =>   2
Atom   2C    basis set group =>   2
Atom   3H    basis set group =>   3
Atom   4H    basis set group =>   3
Atom   5H    basis set group =>   3
Atom   6H    basis set group =>   3
---------------------------------
AUXILIARY/J BASIS SET INFORMATION
---------------------------------
There are 3 groups of distinct atoms

 Group   1 Type O   : 12s5p4d2f1g contracted to 6s4p3d1f1g pattern {711111/2111/211/2/1}
 Group   2 Type C   : 12s5p4d2f1g contracted to 6s4p3d1f1g pattern {711111/2111/211/2/1}
 Group   3 Type H   : 5s2p1d contracted to 3s1p1d pattern {311/2/1}

Atom   0O    basis set group =>   1
Atom   1C    basis set group =>   2
Atom   2C    basis set group =>   2
Atom   3H    basis set group =>   3
Atom   4H    basis set group =>   3
Atom   5H    basis set group =>   3
Atom   6H    basis set group =>   3
[1741611218.575409] [ohm:3483416:0]        ib_iface.c:1059 UCX  ERROR ibv_create_cq(cqe=256) failed: Connection timed out
[1741611218.590152] [ohm:3483420:0]        ib_iface.c:1059 UCX  ERROR ibv_create_cq(cqe=256) failed: Connection timed out
[1741611218.595248] [ohm:3483415:0]        ib_iface.c:1059 UCX  ERROR ibv_create_cq(cqe=256) failed: Connection timed out
[1741611218.634584] [ohm:3483437:0]        ib_iface.c:1059 UCX  ERROR ibv_create_cq(cqe=256) failed: Connection timed out
[1741611218.638269] [ohm:3483423:0]        ib_iface.c:1059 UCX  ERROR ibv_create_cq(cqe=256) failed: Connection timed out
[1741611218.642586] [ohm:3483436:0]        ib_iface.c:1059 UCX  ERROR ibv_create_cq(cqe=256) failed: Connection timed out
[1741611218.644764] [ohm:3483422:0]        ib_iface.c:1059 UCX  ERROR ibv_create_cq(cqe=256) failed: Connection timed out
[1741611218.645469] [ohm:3483426:0]        ib_iface.c:1059 UCX  ERROR ibv_create_cq(cqe=256) failed: Connection timed out
[1741611218.646251] [ohm:3483445:0]        ib_iface.c:1059 UCX  ERROR ibv_create_cq(cqe=256) failed: Connection timed out
[1741611218.647268] [ohm:3483435:0]        ib_iface.c:1059 UCX  ERROR ibv_create_cq(cqe=256) failed: Connection timed out
[1741611218.661196] [ohm:3483425:0]        ib_iface.c:1059 UCX  ERROR ibv_create_cq(cqe=256) failed: Connection timed out
[1741611218.665056] [ohm:3483441:0]        ib_iface.c:1059 UCX  ERROR ibv_create_cq(cqe=256) failed: Connection timed out
[1741611218.669032] [ohm:3483418:0]        ib_iface.c:1059 UCX  ERROR ibv_create_cq(cqe=256) failed: Connection timed out
[1741611218.679874] [ohm:3483424:0]        ib_iface.c:1059 UCX  ERROR ibv_create_cq(cqe=256) failed: Connection timed out
[1741611218.690614] [ohm:3483453:0]        ib_iface.c:1059 UCX  ERROR ibv_create_cq(cqe=256) failed: Connection timed out
[1741611218.713950] [ohm:3483459:0]        ib_iface.c:1059 UCX  ERROR ibv_create_cq(cqe=256) failed: Connection timed out
[1741611218.714919] [ohm:3483491:0]        ib_iface.c:1059 UCX  ERROR ibv_create_cq(cqe=256) failed: Connection timed out
[1741611218.721434] [ohm:3483438:0]        ib_iface.c:1059 UCX  ERROR ibv_create_cq(cqe=256) failed: Connection timed out
[1741611218.721556] [ohm:3483469:0]        ib_iface.c:1059 UCX  ERROR ibv_create_cq(cqe=256) failed: Connection timed out
[1741611218.731334] [ohm:3483471:0]        ib_iface.c:1059 UCX  ERROR ibv_create_cq(cqe=256) failed: Connection timed out
[1741611218.733122] [ohm:3483452:0]        ib_iface.c:1059 UCX  ERROR ibv_create_cq(cqe=256) failed: Connection timed out
[1741611218.737779] [ohm:3483448:0]        ib_iface.c:1059 UCX  ERROR ibv_create_cq(cqe=256) failed: Connection timed out
[1741611218.745269] [ohm:3483555:0]        ib_iface.c:1059 UCX  ERROR ibv_create_cq(cqe=256) failed: Connection timed out
[1741611218.745988] [ohm:3483503:0]        ib_iface.c:1059 UCX  ERROR ibv_create_cq(cqe=256) failed: Connection timed out
[1741611218.754309] [ohm:3483417:0]        ib_iface.c:1059 UCX  ERROR ibv_create_cq(cqe=256) failed: Connection timed out
[1741611218.754515] [ohm:3483464:0]        ib_iface.c:1059 UCX  ERROR ibv_create_cq(cqe=256) failed: Connection timed out
[1741611218.772348] [ohm:3483457:0]        ib_iface.c:1059 UCX  ERROR ibv_create_cq(cqe=256) failed: Connection timed out
[1741611218.782098] [ohm:3483506:0]        ib_iface.c:1059 UCX  ERROR ibv_create_cq(cqe=256) failed: Connection timed out
[1741611218.799050] [ohm:3483419:0]        ib_iface.c:1059 UCX  ERROR ibv_create_cq(cqe=256) failed: Connection timed out
[1741611218.799347] [ohm:3483421:0]        ib_iface.c:1059 UCX  ERROR ibv_create_cq(cqe=256) failed: Connection timed out
[1741611218.801625] [ohm:3483473:0]        ib_iface.c:1059 UCX  ERROR ibv_create_cq(cqe=256) failed: Connection timed out
[1741611218.809885] [ohm:3483460:0]        ib_iface.c:1059 UCX  ERROR ibv_create_cq(cqe=256) failed: Connection timed out
[1741611218.812864] [ohm:3483525:0]        ib_iface.c:1059 UCX  ERROR ibv_create_cq(cqe=256) failed: Connection timed out
[1741611218.815852] [ohm:3483528:0]        ib_iface.c:1059 UCX  ERROR ibv_create_cq(cqe=256) failed: Connection timed out
[1741611218.824286] [ohm:3483489:0]        ib_iface.c:1059 UCX  ERROR ibv_create_cq(cqe=256) failed: Connection timed out
[1741611218.824285] [ohm:3483563:0]        ib_iface.c:1059 UCX  ERROR ibv_create_cq(cqe=256) failed: Connection timed out
[1741611218.835432] [ohm:3483463:0]        ib_iface.c:1059 UCX  ERROR ibv_create_cq(cqe=256) failed: Connection timed out
[1741611218.837562] [ohm:3483507:0]        ib_iface.c:1059 UCX  ERROR ibv_create_cq(cqe=256) failed: Connection timed out
[1741611218.846301] [ohm:3483498:0]        ib_iface.c:1059 UCX  ERROR ibv_create_cq(cqe=256) failed: Connection timed out
[1741611218.853333] [ohm:3483558:0]        ib_iface.c:1059 UCX  ERROR ibv_create_cq(cqe=256) failed: Connection timed out
[1741611218.859146] [ohm:3483466:0]        ib_iface.c:1059 UCX  ERROR ibv_create_cq(cqe=256) failed: Connection timed out
[1741611218.860159] [ohm:3483548:0]        ib_iface.c:1059 UCX  ERROR ibv_create_cq(cqe=256) failed: Connection timed out
[1741611218.860380] [ohm:3483567:0]        ib_iface.c:1059 UCX  ERROR ibv_create_cq(cqe=256) failed: Connection timed out
[1741611218.872420] [ohm:3483465:0]        ib_iface.c:1059 UCX  ERROR ibv_create_cq(cqe=256) failed: Connection timed out
[1741611218.872583] [ohm:3483474:0]        ib_iface.c:1059 UCX  ERROR ibv_create_cq(cqe=256) failed: Connection timed out
[1741611218.872691] [ohm:3483496:0]        ib_iface.c:1059 UCX  ERROR ibv_create_cq(cqe=256) failed: Connection timed out
[1741611218.873224] [ohm:3483540:0]        ib_iface.c:1059 UCX  ERROR ibv_create_cq(cqe=256) failed: Connection timed out
[1741611218.886693] [ohm:3483481:0]        ib_iface.c:1059 UCX  ERROR ibv_create_cq(cqe=256) failed: Connection timed out
[1741611218.886850] [ohm:3483475:0]        ib_iface.c:1059 UCX  ERROR ibv_create_cq(cqe=256) failed: Connection timed out
[1741611218.888477] [ohm:3483485:0]        ib_iface.c:1059 UCX  ERROR ibv_create_cq(cqe=256) failed: Connection timed out
[1741611218.890423] [ohm:3483468:0]        ib_iface.c:1059 UCX  ERROR ibv_create_cq(cqe=256) failed: Connection timed out
[1741611218.893509] [ohm:3483515:0]        ib_iface.c:1059 UCX  ERROR ibv_create_cq(cqe=256) failed: Connection timed out
[1741611218.897101] [ohm:3483522:0]        ib_iface.c:1059 UCX  ERROR ibv_create_cq(cqe=256) failed: Connection timed out
[1741611218.899678] [ohm:3483560:0]        ib_iface.c:1059 UCX  ERROR ibv_create_cq(cqe=256) failed: Connection timed out
[1741611218.900030] [ohm:3483536:0]        ib_iface.c:1059 UCX  ERROR ibv_create_cq(cqe=256) failed: Connection timed out
[1741611218.900098] [ohm:3483513:0]        ib_iface.c:1059 UCX  ERROR ibv_create_cq(cqe=256) failed: Connection timed out
[1741611218.904363] [ohm:3483479:0]        ib_iface.c:1059 UCX  ERROR ibv_create_cq(cqe=256) failed: Connection timed out
[1741611218.905776] [ohm:3483543:0]        ib_iface.c:1059 UCX  ERROR ibv_create_cq(cqe=256) failed: Connection timed out
[1741611218.908740] [ohm:3483550:0]        ib_iface.c:1059 UCX  ERROR ibv_create_cq(cqe=256) failed: Connection timed out
[1741611218.909971] [ohm:3483519:0]        ib_iface.c:1059 UCX  ERROR ibv_create_cq(cqe=256) failed: Connection timed out
[1741611218.910528] [ohm:3483467:0]        ib_iface.c:1059 UCX  ERROR ibv_create_cq(cqe=256) failed: Connection timed out
[1741611218.911177] [ohm:3483470:0]        ib_iface.c:1059 UCX  ERROR ibv_create_cq(cqe=256) failed: Connection timed out
[1741611218.911943] [ohm:3483533:0]        ib_iface.c:1059 UCX  ERROR ibv_create_cq(cqe=256) failed: Connection timed out
[1741611218.912899] [ohm:3483472:0]        ib_iface.c:1059 UCX  ERROR ibv_create_cq(cqe=256) failed: Connection timed out


           ************************************************************
           *        Program running with 64 parallel MPI-processes    *
           *              working on a common directory               *
           ************************************************************
------------------------------------------------------------------------------
                             ORCA STARTUP CALCULATIONS
                           -- RI-GTO INTEGRALS CHOSEN --
------------------------------------------------------------------------------
------------------------------------------------------------------------------
                   ___                                                        
                  /   \      - P O W E R E D   B Y -                         
                 /     \                                                     
                 |  |  |   _    _      __       _____    __    __             
                 |  |  |  | |  | |    /  \     |  _  \  |  |  /  |          
                  \  \/   | |  | |   /    \    | | | |  |  | /  /          
                 / \  \   | |__| |  /  /\  \   | |_| |  |  |/  /          
                |  |  |   |  __  | /  /__\  \  |    /   |      \           
                |  |  |   | |  | | |   __   |  |    \   |  |\   \          
                \     /   | |  | | |  |  |  |  | |\  \  |  | \   \       
                 \___/    |_|  |_| |__|  |__|  |_| \__\ |__|  \__/        
                                                                              
                      - O R C A' S   B I G   F R I E N D -                    
                                      &                                       
                       - I N T E G R A L  F E E D E R -                       
                                                                              
 v1 FN, 2020, v2 2021, v3 2022-2024                                           
------------------------------------------------------------------------------


----------------------
SHARK INTEGRAL PACKAGE
----------------------

Number of atoms                             ...      7
Number of basis functions                   ...    182
Number of shells                            ...     68
Maximum angular momentum                    ...      3
Integral batch strategy                     ... SHARK/LIBINT Hybrid
RI-J (if used) integral strategy            ... SPLIT-RIJ (Revised 2003 algorithm where possible)
Printlevel                                  ...      1
Contraction scheme used                     ... SEGMENTED contraction
Prescreening option                         ... SCHWARTZ
   Thresh                                   ... 2.500e-11
   Tcut                                     ... 2.500e-12
   Tpresel                                  ... 2.500e-12 
Coulomb Range Separation                    ... NOT USED
Exchange Range Separation                   ... Long Range
   Mu parameter                             ... 3.000e-01
   Scaling (regular/separated)              ... 1.500e-01 8.500e-01
Multipole approximations                    ... NOT USED
Finite Nucleus Model                        ... NOT USED
CABS basis                                  ... NOT available
Auxiliary Coulomb fitting basis             ... AVAILABLE
   # of basis functions in Aux-J            ...    191
   # of shells in Aux-J                     ...     65
   Maximum angular momentum in Aux-J        ...      4
Auxiliary J/K fitting basis                 ... NOT available
Auxiliary Correlation fitting basis         ... NOT available
Auxiliary 'external' fitting basis          ... NOT available

Checking pre-screening integrals            ... done (  0.0 sec) Dimension = 68
Check shell pair data                       ... done (  0.0 sec)
Shell pair information
Shell pair cut-off parameter TPreSel        ...   2.5e-12
Total number of shell pairs                 ...      2346
Shell pairs after pre-screening             ...      2330
Total number of primitive shell pairs       ...      5434
Primitive shell pairs kept                  ...      4831
          la=0 lb=0:    456 shell pairs
          la=1 lb=0:    656 shell pairs
          la=1 lb=1:    253 shell pairs
          la=2 lb=0:    387 shell pairs
          la=2 lb=1:    286 shell pairs
          la=2 lb=2:     91 shell pairs
          la=3 lb=0:     90 shell pairs
          la=3 lb=1:     66 shell pairs
          la=3 lb=2:     39 shell pairs
          la=3 lb=3:      6 shell pairs

Calculating one electron integrals          ... done (  0.0 sec)
Calculating RI/J V-Matrix + Cholesky decomp.... done (  0.0 sec)
Calculating Nuclear repulsion               ... done (  0.0 sec) ENN=     68.848388347337 Eh

Diagonalization of the overlap matrix:
Smallest eigenvalue                        ... 1.565e-05
Time for diagonalization                   ...    0.003 sec
Threshold for overlap eigenvalues          ... 1.000e-07
Number of eigenvalues below threshold      ... 0
Time for construction of square roots      ...    0.004 sec
Total time needed                          ...    0.009 sec

-------------------
DFT GRID GENERATION
-------------------

General Integration Accuracy     IntAcc      ... 4.388
Radial Grid Type                 RadialGrid  ... OptM3 with GC (2021)
Angular Grid (max. ang.)         AngularGrid ... 4 (Lebedev-302)
Angular grid pruning method      GridPruning ... 4 (adaptive)
Weight generation scheme         WeightScheme... mBecke (2022)
Basis function cutoff            BFCut       ... 1.0000e-11
Integration weight cutoff        WCut        ... 1.0000e-14
Partially contracted basis set               ... off
Rotationally invariant grid construction     ... off
Angular grids for H and He will be reduced by one unit
Diffuse basis detected: some atoms will have their outermost
                        angular grid increased by 1.

Total number of grid points                  ...    33136
Total number of batches                      ...      522
Average number of points per batch           ...       63
Average number of grid points per atom       ...     4734

--------------------
COSX GRID GENERATION
--------------------

GRIDX 1
-------
General Integration Accuracy     IntAcc      ... 3.816
Radial Grid Type                 RadialGrid  ... OptM3 with GC (2021)
Angular Grid (max. ang.)         AngularGrid ... 1 (Lebedev-50)
Angular grid pruning method      GridPruning ... 4 (adaptive)
Weight generation scheme         WeightScheme... mBecke (2022)
Basis function cutoff            BFCut       ... 1.0000e-11
Integration weight cutoff        WCut        ... 1.0000e-14
Partially contracted basis set               ... on
Rotationally invariant grid construction     ... off
Angular grids for H and He will be reduced by one unit
Diffuse basis detected: some atoms will have their outermost
                        angular grid increased by 1.

Total number of grid points                  ...     4174
Total number of batches                      ...       36
Average number of points per batch           ...      115
Average number of grid points per atom       ...      596
UseSFitting                                  ... on

GRIDX 2
-------
General Integration Accuracy     IntAcc      ... 4.020
Radial Grid Type                 RadialGrid  ... OptM3 with GC (2021)
Angular Grid (max. ang.)         AngularGrid ... 2 (Lebedev-110)
Angular grid pruning method      GridPruning ... 4 (adaptive)
Weight generation scheme         WeightScheme... mBecke (2022)
Basis function cutoff            BFCut       ... 1.0000e-11
Integration weight cutoff        WCut        ... 1.0000e-14
Partially contracted basis set               ... on
Rotationally invariant grid construction     ... off
Angular grids for H and He will be reduced by one unit
Diffuse basis detected: some atoms will have their outermost
                        angular grid increased by 1.

Total number of grid points                  ...    10287
Total number of batches                      ...       84
Average number of points per batch           ...      122
Average number of grid points per atom       ...     1470
UseSFitting                                  ... on

GRIDX 3
-------
General Integration Accuracy     IntAcc      ... 4.338
Radial Grid Type                 RadialGrid  ... OptM3 with GC (2021)
Angular Grid (max. ang.)         AngularGrid ... 3 (Lebedev-194)
Angular grid pruning method      GridPruning ... 4 (adaptive)
Weight generation scheme         WeightScheme... mBecke (2022)
Basis function cutoff            BFCut       ... 1.0000e-11
Integration weight cutoff        WCut        ... 1.0000e-14
Partially contracted basis set               ... on
Rotationally invariant grid construction     ... off
Angular grids for H and He will be reduced by one unit
Diffuse basis detected: some atoms will have their outermost
                        angular grid increased by 1.

Total number of grid points                  ...    23154
Total number of batches                      ...      186
Average number of points per batch           ...      124
Average number of grid points per atom       ...     3308
UseSFitting                                  ... on
Initializing property integral containers    ... done (  0.0 sec)

SHARK setup successfully completed in   0.4 seconds

Maximum memory used throughout the entire STARTUP-calculation: 13.8 MB
[1741611220.960803] [ohm:3483748:0]        ib_iface.c:1059 UCX  ERROR ibv_create_cq(cqe=256) failed: Connection timed out
[1741611220.963167] [ohm:3483745:0]        ib_iface.c:1059 UCX  ERROR ibv_create_cq(cqe=256) failed: Connection timed out
[1741611220.982510] [ohm:3483746:0]        ib_iface.c:1059 UCX  ERROR ibv_create_cq(cqe=256) failed: Connection timed out
[1741611220.988368] [ohm:3483747:0]        ib_iface.c:1059 UCX  ERROR ibv_create_cq(cqe=256) failed: Connection timed out
[1741611221.015089] [ohm:3483770:0]        ib_iface.c:1059 UCX  ERROR ibv_create_cq(cqe=256) failed: Connection timed out
[1741611221.030942] [ohm:3483754:0]        ib_iface.c:1059 UCX  ERROR ibv_create_cq(cqe=256) failed: Connection timed out
[1741611221.036287] [ohm:3483751:0]        ib_iface.c:1059 UCX  ERROR ibv_create_cq(cqe=256) failed: Connection timed out
[1741611221.041389] [ohm:3483749:0]        ib_iface.c:1059 UCX  ERROR ibv_create_cq(cqe=256) failed: Connection timed out
[1741611221.048341] [ohm:3483750:0]        ib_iface.c:1059 UCX  ERROR ibv_create_cq(cqe=256) failed: Connection timed out
[1741611221.049669] [ohm:3483753:0]        ib_iface.c:1059 UCX  ERROR ibv_create_cq(cqe=256) failed: Connection timed out
[1741611221.051759] [ohm:3483791:0]        ib_iface.c:1059 UCX  ERROR ibv_create_cq(cqe=256) failed: Connection timed out
[1741611221.051866] [ohm:3483766:0]        ib_iface.c:1059 UCX  ERROR ibv_create_cq(cqe=256) failed: Connection timed out
[1741611221.053363] [ohm:3483763:0]        ib_iface.c:1059 UCX  ERROR ibv_create_cq(cqe=256) failed: Connection timed out
[1741611221.057648] [ohm:3483789:0]        ib_iface.c:1059 UCX  ERROR ibv_create_cq(cqe=256) failed: Connection timed out
[1741611221.058209] [ohm:3483769:0]        ib_iface.c:1059 UCX  ERROR ibv_create_cq(cqe=256) failed: Connection timed out
[1741611221.072450] [ohm:3483855:0]        ib_iface.c:1059 UCX  ERROR ibv_create_cq(cqe=256) failed: Connection timed out
[1741611221.072755] [ohm:3483803:0]        ib_iface.c:1059 UCX  ERROR ibv_create_cq(cqe=256) failed: Connection timed out
[1741611221.074626] [ohm:3483782:0]        ib_iface.c:1059 UCX  ERROR ibv_create_cq(cqe=256) failed: Connection timed out
[1741611221.085333] [ohm:3483807:0]        ib_iface.c:1059 UCX  ERROR ibv_create_cq(cqe=256) failed: Connection timed out
[1741611221.110648] [ohm:3483768:0]        ib_iface.c:1059 UCX  ERROR ibv_create_cq(cqe=256) failed: Connection timed out
[1741611221.121775] [ohm:3483853:0]        ib_iface.c:1059 UCX  ERROR ibv_create_cq(cqe=256) failed: Connection timed out
[1741611221.123391] [ohm:3483790:0]        ib_iface.c:1059 UCX  ERROR ibv_create_cq(cqe=256) failed: Connection timed out
[1741611221.132205] [ohm:3483871:0]        ib_iface.c:1059 UCX  ERROR ibv_create_cq(cqe=256) failed: Connection timed out
[1741611221.135388] [ohm:3483752:0]        ib_iface.c:1059 UCX  ERROR ibv_create_cq(cqe=256) failed: Connection timed out
[1741611221.141646] [ohm:3483771:0]        ib_iface.c:1059 UCX  ERROR ibv_create_cq(cqe=256) failed: Connection timed out
[1741611221.145317] [ohm:3483860:0]        ib_iface.c:1059 UCX  ERROR ibv_create_cq(cqe=256) failed: Connection timed out
[1741611221.150258] [ohm:3483875:0]        ib_iface.c:1059 UCX  ERROR ibv_create_cq(cqe=256) failed: Connection timed out
[1741611221.159469] [ohm:3483878:0]        ib_iface.c:1059 UCX  ERROR ibv_create_cq(cqe=256) failed: Connection timed out
[1741611221.176339] [ohm:3483767:0]        ib_iface.c:1059 UCX  ERROR ibv_create_cq(cqe=256) failed: Connection timed out
[1741611221.181081] [ohm:3483795:0]        ib_iface.c:1059 UCX  ERROR ibv_create_cq(cqe=256) failed: Connection timed out
[1741611221.190828] [ohm:3483809:0]        ib_iface.c:1059 UCX  ERROR ibv_create_cq(cqe=256) failed: Connection timed out
[1741611221.191423] [ohm:3483777:0]        ib_iface.c:1059 UCX  ERROR ibv_create_cq(cqe=256) failed: Connection timed out
[1741611221.192456] [ohm:3483796:0]        ib_iface.c:1059 UCX  ERROR ibv_create_cq(cqe=256) failed: Connection timed out
[1741611221.205231] [ohm:3483801:0]        ib_iface.c:1059 UCX  ERROR ibv_create_cq(cqe=256) failed: Connection timed out
[1741611221.207563] [ohm:3483813:0]        ib_iface.c:1059 UCX  ERROR ibv_create_cq(cqe=256) failed: Connection timed out
[1741611221.210752] [ohm:3483883:0]        ib_iface.c:1059 UCX  ERROR ibv_create_cq(cqe=256) failed: Connection timed out
[1741611221.213848] [ohm:3483798:0]        ib_iface.c:1059 UCX  ERROR ibv_create_cq(cqe=256) failed: Connection timed out
[1741611221.215972] [ohm:3483833:0]        ib_iface.c:1059 UCX  ERROR ibv_create_cq(cqe=256) failed: Connection timed out
[1741611221.217437] [ohm:3483776:0]        ib_iface.c:1059 UCX  ERROR ibv_create_cq(cqe=256) failed: Connection timed out
[1741611221.217980] [ohm:3483865:0]        ib_iface.c:1059 UCX  ERROR ibv_create_cq(cqe=256) failed: Connection timed out
[1741611221.234330] [ohm:3483844:0]        ib_iface.c:1059 UCX  ERROR ibv_create_cq(cqe=256) failed: Connection timed out
[1741611221.234864] [ohm:3483793:0]        ib_iface.c:1059 UCX  ERROR ibv_create_cq(cqe=256) failed: Connection timed out
[1741611221.241385] [ohm:3483765:0]        ib_iface.c:1059 UCX  ERROR ibv_create_cq(cqe=256) failed: Connection timed out
[1741611221.245974] [ohm:3483880:0]        ib_iface.c:1059 UCX  ERROR ibv_create_cq(cqe=256) failed: Connection timed out
[1741611221.246237] [ohm:3483816:0]        ib_iface.c:1059 UCX  ERROR ibv_create_cq(cqe=256) failed: Connection timed out
[1741611221.250161] [ohm:3483867:0]        ib_iface.c:1059 UCX  ERROR ibv_create_cq(cqe=256) failed: Connection timed out
[1741611221.251102] [ohm:3483788:0]        ib_iface.c:1059 UCX  ERROR ibv_create_cq(cqe=256) failed: Connection timed out
[1741611221.251292] [ohm:3483794:0]        ib_iface.c:1059 UCX  ERROR ibv_create_cq(cqe=256) failed: Connection timed out
[1741611221.253643] [ohm:3483824:0]        ib_iface.c:1059 UCX  ERROR ibv_create_cq(cqe=256) failed: Connection timed out
[1741611221.260276] [ohm:3483829:0]        ib_iface.c:1059 UCX  ERROR ibv_create_cq(cqe=256) failed: Connection timed out
[1741611221.267016] [ohm:3483792:0]        ib_iface.c:1059 UCX  ERROR ibv_create_cq(cqe=256) failed: Connection timed out
[1741611221.268926] [ohm:3483896:0]        ib_iface.c:1059 UCX  ERROR ibv_create_cq(cqe=256) failed: Connection timed out
[1741611221.271376] [ohm:3483797:0]        ib_iface.c:1059 UCX  ERROR ibv_create_cq(cqe=256) failed: Connection timed out
[1741611221.271436] [ohm:3483838:0]        ib_iface.c:1059 UCX  ERROR ibv_create_cq(cqe=256) failed: Connection timed out
[1741611221.272178] [ohm:3483877:0]        ib_iface.c:1059 UCX  ERROR ibv_create_cq(cqe=256) failed: Connection timed out
[1741611221.276871] [ohm:3483785:0]        ib_iface.c:1059 UCX  ERROR ibv_create_cq(cqe=256) failed: Connection timed out
[1741611221.277123] [ohm:3483858:0]        ib_iface.c:1059 UCX  ERROR ibv_create_cq(cqe=256) failed: Connection timed out
[1741611221.277151] [ohm:3483764:0]        ib_iface.c:1059 UCX  ERROR ibv_create_cq(cqe=256) failed: Connection timed out
[1741611221.277776] [ohm:3483848:0]        ib_iface.c:1059 UCX  ERROR ibv_create_cq(cqe=256) failed: Connection timed out
[1741611221.279821] [ohm:3483827:0]        ib_iface.c:1059 UCX  ERROR ibv_create_cq(cqe=256) failed: Connection timed out
[1741611221.280657] [ohm:3483889:0]        ib_iface.c:1059 UCX  ERROR ibv_create_cq(cqe=256) failed: Connection timed out
[1741611221.281303] [ohm:3483822:0]        ib_iface.c:1059 UCX  ERROR ibv_create_cq(cqe=256) failed: Connection timed out
[1741611221.282185] [ohm:3483841:0]        ib_iface.c:1059 UCX  ERROR ibv_create_cq(cqe=256) failed: Connection timed out
[1741611221.282356] [ohm:3483851:0]        ib_iface.c:1059 UCX  ERROR ibv_create_cq(cqe=256) failed: Connection timed out


           ************************************************************
           *        Program running with 64 parallel MPI-processes    *
           *              working on a common directory               *
           ************************************************************
-------------------------------------------------------------------------------
                                 ORCA GUESS
                   Start orbitals & Density for SCF / CASSCF
-------------------------------------------------------------------------------

------------
SCF SETTINGS
------------
Hamiltonian:
 Density Functional     Method          .... DFT(GTOs)
  Functional kind                       .... Exchange-Correlation
  Functional name                       .... wB97M-V exchange-correlation functional
  Functional family                     .... Hybrid MGGA
  Functional refs                              
    [ 0] N. Mardirossian and M. Head-Gordon.,  J. Chem. Phys. 144, 214110 (2016), doi: 10.1063/1.4952647
  Fraction of HF Exchange (short range) .... 0.1500
  Fraction of HF Exchange (long range)  .... 1.0000
  Range separation parameter mu         .... 0.3000
  Functional external parameters        .... 17
    Parameter  0 _cx00      =  8.500000e-01 : u^00 coefficient for exchange
    Parameter  1 _cx01      =  1.007000e+00 : u^01 coefficient for exchange
    Parameter  2 _cx10      =  2.590000e-01 : u^10 coefficient for exchange
    Parameter  3 _css00     =  4.430000e-01 : u^00 coefficient for same-spin correlation
    Parameter  4 _css04     = -1.437000e+00 : u^04 coefficient for same-spin correlation
    Parameter  5 _css10     = -4.535000e+00 : u^10 coefficient for same-spin correlation
    Parameter  6 _css20     = -3.390000e+00 : u^20 coefficient for same-spin correlation
    Parameter  7 _css43     =  4.278000e+00 : u^43 coefficient for same-spin correlation
    Parameter  8 _cos00     =  1.000000e+00 : u^00 coefficient for opposite-spin correlation
    Parameter  9 _cos10     =  1.358000e+00 : u^10 coefficient for opposite-spin correlation
    Parameter 10 _cos20     =  2.924000e+00 : u^20 coefficient for opposite-spin correlation
    Parameter 11 _cos21     = -8.812000e+00 : u^21 coefficient for opposite-spin correlation
    Parameter 12 _cos60     = -1.390000e+00 : u^60 coefficient for opposite-spin correlation
    Parameter 13 _cos61     =  9.142000e+00 : u^61 coefficient for opposite-spin correlation
    Parameter 14 _alpha     =  1.000000e+00 : fraction of HF exchange
    Parameter 15 _beta      = -8.500000e-01 : fraction of short-range exchange
    Parameter 16 _omega     =  3.000000e-01 : range-separation constant
 Long-range corrected/Screened/Range-Separated Hybrid DFT is turned on
   Amount of maximum screened exact exchange              ....  0.850000
   Range separation parameter mu (erf(mu*r12)/r12)        ....  0.300000
 RI-approximation to the Coulomb term is turned on
   Number of AuxJ basis functions       .... 191
   RIJ-COSX (HFX calculated with COS-X)).... on


General Settings:
 Integral files         IntName         .... orca
 Hartree-Fock type      HFTyp           .... UHF
 Total Charge           Charge          ....    0
 Multiplicity           Mult            ....    3
 Number of Electrons    NEL             ....   24
 Basis Dimension        Dim             ....  182
 Nuclear Repulsion      ENuc            ....     68.8483883473 Eh

Convergence Acceleration:
 AO-DIIS                CNVDIIS         .... on
   Start iteration      DIISMaxIt       ....    12
   Startup error        DIISStart       ....  0.200000
   # of expansion vecs  DIISMaxEq       ....     5
   Bias factor          DIISBfac        ....   1.050
   Max. coefficient     DIISMaxC        ....  10.000
 MO-DIIS                CNVKDIIS        .... off
 Trust-Rad. Augm. Hess. CNVTRAH         .... auto
   Auto Start mean grad. ratio tolernc. ....  1.125000
   Auto Start start iteration           ....    50
   Auto Start num. interpolation iter.  ....    10
   Max. Number of Micro iterations      ....    24
   Max. Number of Macro iterations      .... Maxiter - #DIIS iter
   Number of Davidson start vectors     ....     2
   Converg. threshold    (grad. norm)   ....   1.000e-05
   Grad. Scal. Fac. for Micro threshold ....   0.100
   Minimum threshold for Micro iter.    ....   1.000e-02
   NR start threshold (gradient norm)   ....   1.000e-04
   Initial trust radius                 ....   0.400
   Minimum AH scaling param. (alpha)    ....   1.000
   Maximum AH scaling param. (alpha)    .... 1000.000
   Quad. conv. algorithm                .... NR
   White noise on init. David. guess    .... on
   Maximum white noise                  ....   0.010
   Pseudo random numbers                .... off
   Inactive MOs                         .... canonical
   Orbital update algorithm             .... Taylor
   Preconditioner                       .... Diag
   Full preconditioner red. dimension   ....   250
 SOSCF                  CNVSOSCF        .... on
   Start iteration      SOSCFMaxIt      ....   150
   Startup grad/error   SOSCFStart      ....  0.003300
   Hessian update       SOSCFHessUp     .... L-BFGS
 Level Shifting         CNVShift        .... on
   Level shift para.    LevelShift      ....    0.2500
   Turn off err/grad.   ShiftErr        ....    0.0010
 Zerner damping         CNVZerner       .... off
 Static damping         CNVDamp         .... on
   Fraction old density DampFac         ....    0.7000
   Max. Damping (<1)    DampMax         ....    0.9800
   Min. Damping (>=0)   DampMin         ....    0.0000
   Turn off err/grad.   DampErr         ....    0.1000

SCF Procedure:
 Maximum # iterations   MaxIter         ....   125
 SCF integral mode      SCFMode         .... Direct
   Integral package                     .... SHARK and LIBINT hybrid scheme
 Reset frequency        DirectResetFreq ....    20
 Integral Threshold     Thresh          ....  2.500e-11 Eh
 Primitive CutOff       TCut            ....  2.500e-12 Eh

Convergence Tolerance:
 Convergence Check Mode ConvCheckMode   .... Total+1el-Energy
 Convergence forced     ConvForced      .... 1
 Energy Change          TolE            ....  1.000e-08 Eh
 1-El. energy change                    ....  1.000e-05 Eh
 Orbital Gradient       TolG            ....  1.000e-05
 Orbital Rotation angle TolX            ....  1.000e-05
 DIIS Error             TolErr          ....  5.000e-07

------------------------------
INITIAL GUESS: MODEL POTENTIAL
------------------------------
Loading Hartree-Fock densities                     ... done
Calculating cut-offs                               ... done
Initializing the effective Hamiltonian             ... done
Setting up the integral package (SHARK)            ... done
Starting the Coulomb interaction                   ... done (   0.0 sec)
Making the grid                                    ... done (   0.0 sec)
Mapping shells                                     ... done
Starting the XC term evaluation                    ... done (   0.0 sec)
  promolecular density results
     # of electrons  =     23.998715679
     EX              =    -19.489203251
     EC              =     -0.768600156
     EX+EC           =    -20.257803407
Transforming the Hamiltonian                       ... done (   0.0 sec)
Diagonalizing the Hamiltonian                      ... done (   0.0 sec)
Back transforming the eigenvectors                 ... done (   0.0 sec)
Now organizing SCF variables                       ... done
                      ------------------
                      INITIAL GUESS DONE (   0.1 sec)
                      ------------------
             **** ENERGY FILE WAS UPDATED (orca.en.tmp) ****
Finished Guess after   1.7 sec
Maximum memory used throughout the entire GUESS-calculation: 9.5 MB
[1741611223.128637] [ohm:3484112:0]        ib_iface.c:1059 UCX  ERROR ibv_create_cq(cqe=256) failed: Connection timed out
[1741611223.140165] [ohm:3484135:0]        ib_iface.c:1059 UCX  ERROR ibv_create_cq(cqe=256) failed: Connection timed out
[1741611223.142476] [ohm:3484092:0]        ib_iface.c:1059 UCX  ERROR ibv_create_cq(cqe=256) failed: Connection timed out
[1741611223.147943] [ohm:3484109:0]        ib_iface.c:1059 UCX  ERROR ibv_create_cq(cqe=256) failed: Connection timed out
[1741611223.148801] [ohm:3484113:0]        ib_iface.c:1059 UCX  ERROR ibv_create_cq(cqe=256) failed: Connection timed out
[1741611223.151905] [ohm:3484089:0]        ib_iface.c:1059 UCX  ERROR ibv_create_cq(cqe=256) failed: Connection timed out
[1741611223.154018] [ohm:3484123:0]        ib_iface.c:1059 UCX  ERROR ibv_create_cq(cqe=256) failed: Connection timed out
[1741611223.154079] [ohm:3484111:0]        ib_iface.c:1059 UCX  ERROR ibv_create_cq(cqe=256) failed: Connection timed out
[1741611223.157074] [ohm:3484090:0]        ib_iface.c:1059 UCX  ERROR ibv_create_cq(cqe=256) failed: Connection timed out
[1741611223.160715] [ohm:3484088:0]        ib_iface.c:1059 UCX  ERROR ibv_create_cq(cqe=256) failed: Connection timed out
[1741611223.166693] [ohm:3484108:0]        ib_iface.c:1059 UCX  ERROR ibv_create_cq(cqe=256) failed: Connection timed out
[1741611223.173034] [ohm:3484116:0]        ib_iface.c:1059 UCX  ERROR ibv_create_cq(cqe=256) failed: Connection timed out
[1741611223.176752] [ohm:3484129:0]        ib_iface.c:1059 UCX  ERROR ibv_create_cq(cqe=256) failed: Connection timed out
[1741611223.219162] [ohm:3484096:0]        ib_iface.c:1059 UCX  ERROR ibv_create_cq(cqe=256) failed: Connection timed out
[1741611223.221830] [ohm:3484095:0]        ib_iface.c:1059 UCX  ERROR ibv_create_cq(cqe=256) failed: Connection timed out
[1741611223.241278] [ohm:3484137:0]        ib_iface.c:1059 UCX  ERROR ibv_create_cq(cqe=256) failed: Connection timed out
[1741611223.249583] [ohm:3484141:0]        ib_iface.c:1059 UCX  ERROR ibv_create_cq(cqe=256) failed: Connection timed out
[1741611223.250296] [ohm:3484136:0]        ib_iface.c:1059 UCX  ERROR ibv_create_cq(cqe=256) failed: Connection timed out
[1741611223.253209] [ohm:3484132:0]        ib_iface.c:1059 UCX  ERROR ibv_create_cq(cqe=256) failed: Connection timed out
[1741611223.263569] [ohm:3484138:0]        ib_iface.c:1059 UCX  ERROR ibv_create_cq(cqe=256) failed: Connection timed out
[1741611223.265310] [ohm:3484227:0]        ib_iface.c:1059 UCX  ERROR ibv_create_cq(cqe=256) failed: Connection timed out
[1741611223.272055] [ohm:3484133:0]        ib_iface.c:1059 UCX  ERROR ibv_create_cq(cqe=256) failed: Connection timed out
[1741611223.279002] [ohm:3484114:0]        ib_iface.c:1059 UCX  ERROR ibv_create_cq(cqe=256) failed: Connection timed out
[1741611223.290184] [ohm:3484220:0]        ib_iface.c:1059 UCX  ERROR ibv_create_cq(cqe=256) failed: Connection timed out
[1741611223.292833] [ohm:3484091:0]        ib_iface.c:1059 UCX  ERROR ibv_create_cq(cqe=256) failed: Connection timed out
[1741611223.297160] [ohm:3484093:0]        ib_iface.c:1059 UCX  ERROR ibv_create_cq(cqe=256) failed: Connection timed out
[1741611223.297159] [ohm:3484110:0]        ib_iface.c:1059 UCX  ERROR ibv_create_cq(cqe=256) failed: Connection timed out
[1741611223.298267] [ohm:3484094:0]        ib_iface.c:1059 UCX  ERROR ibv_create_cq(cqe=256) failed: Connection timed out
[1741611223.300479] [ohm:3484204:0]        ib_iface.c:1059 UCX  ERROR ibv_create_cq(cqe=256) failed: Connection timed out
[1741611223.302081] [ohm:3484099:0]        ib_iface.c:1059 UCX  ERROR ibv_create_cq(cqe=256) failed: Connection timed out
[1741611223.307078] [ohm:3484125:0]        ib_iface.c:1059 UCX  ERROR ibv_create_cq(cqe=256) failed: Connection timed out
[1741611223.336392] [ohm:3484134:0]        ib_iface.c:1059 UCX  ERROR ibv_create_cq(cqe=256) failed: Connection timed out
[1741611223.338706] [ohm:3484201:0]        ib_iface.c:1059 UCX  ERROR ibv_create_cq(cqe=256) failed: Connection timed out
[1741611223.343221] [ohm:3484150:0]        ib_iface.c:1059 UCX  ERROR ibv_create_cq(cqe=256) failed: Connection timed out
[1741611223.343391] [ohm:3484157:0]        ib_iface.c:1059 UCX  ERROR ibv_create_cq(cqe=256) failed: Connection timed out
[1741611223.351847] [ohm:3484167:0]        ib_iface.c:1059 UCX  ERROR ibv_create_cq(cqe=256) failed: Connection timed out
[1741611223.352510] [ohm:3484212:0]        ib_iface.c:1059 UCX  ERROR ibv_create_cq(cqe=256) failed: Connection timed out
[1741611223.366367] [ohm:3484209:0]        ib_iface.c:1059 UCX  ERROR ibv_create_cq(cqe=256) failed: Connection timed out
[1741611223.367804] [ohm:3484140:0]        ib_iface.c:1059 UCX  ERROR ibv_create_cq(cqe=256) failed: Connection timed out
[1741611223.372880] [ohm:3484162:0]        ib_iface.c:1059 UCX  ERROR ibv_create_cq(cqe=256) failed: Connection timed out
[1741611223.372895] [ohm:3484165:0]        ib_iface.c:1059 UCX  ERROR ibv_create_cq(cqe=256) failed: Connection timed out
[1741611223.373389] [ohm:3484146:0]        ib_iface.c:1059 UCX  ERROR ibv_create_cq(cqe=256) failed: Connection timed out
[1741611223.376218] [ohm:3484145:0]        ib_iface.c:1059 UCX  ERROR ibv_create_cq(cqe=256) failed: Connection timed out
[1741611223.379631] [ohm:3484193:0]        ib_iface.c:1059 UCX  ERROR ibv_create_cq(cqe=256) failed: Connection timed out
[1741611223.385151] [ohm:3484178:0]        ib_iface.c:1059 UCX  ERROR ibv_create_cq(cqe=256) failed: Connection timed out
[1741611223.391210] [ohm:3484191:0]        ib_iface.c:1059 UCX  ERROR ibv_create_cq(cqe=256) failed: Connection timed out
[1741611223.392959] [ohm:3484237:0]        ib_iface.c:1059 UCX  ERROR ibv_create_cq(cqe=256) failed: Connection timed out
[1741611223.395436] [ohm:3484234:0]        ib_iface.c:1059 UCX  ERROR ibv_create_cq(cqe=256) failed: Connection timed out
[1741611223.396293] [ohm:3484223:0]        ib_iface.c:1059 UCX  ERROR ibv_create_cq(cqe=256) failed: Connection timed out
[1741611223.402787] [ohm:3484215:0]        ib_iface.c:1059 UCX  ERROR ibv_create_cq(cqe=256) failed: Connection timed out
[1741611223.407794] [ohm:3484142:0]        ib_iface.c:1059 UCX  ERROR ibv_create_cq(cqe=256) failed: Connection timed out
[1741611223.410551] [ohm:3484230:0]        ib_iface.c:1059 UCX  ERROR ibv_create_cq(cqe=256) failed: Connection timed out
[1741611223.413033] [ohm:3484115:0]        ib_iface.c:1059 UCX  ERROR ibv_create_cq(cqe=256) failed: Connection timed out
[1741611223.413923] [ohm:3484153:0]        ib_iface.c:1059 UCX  ERROR ibv_create_cq(cqe=256) failed: Connection timed out
[1741611223.414567] [ohm:3484120:0]        ib_iface.c:1059 UCX  ERROR ibv_create_cq(cqe=256) failed: Connection timed out
[1741611223.421794] [ohm:3484196:0]        ib_iface.c:1059 UCX  ERROR ibv_create_cq(cqe=256) failed: Connection timed out
[1741611223.421963] [ohm:3484171:0]        ib_iface.c:1059 UCX  ERROR ibv_create_cq(cqe=256) failed: Connection timed out
[1741611223.422031] [ohm:3484182:0]        ib_iface.c:1059 UCX  ERROR ibv_create_cq(cqe=256) failed: Connection timed out
[1741611223.423169] [ohm:3484143:0]        ib_iface.c:1059 UCX  ERROR ibv_create_cq(cqe=256) failed: Connection timed out
[1741611223.426522] [ohm:3484117:0]        ib_iface.c:1059 UCX  ERROR ibv_create_cq(cqe=256) failed: Connection timed out
[1741611223.427226] [ohm:3484175:0]        ib_iface.c:1059 UCX  ERROR ibv_create_cq(cqe=256) failed: Connection timed out
[1741611223.427325] [ohm:3484139:0]        ib_iface.c:1059 UCX  ERROR ibv_create_cq(cqe=256) failed: Connection timed out
[1741611223.427466] [ohm:3484217:0]        ib_iface.c:1059 UCX  ERROR ibv_create_cq(cqe=256) failed: Connection timed out
[1741611223.428357] [ohm:3484186:0]        ib_iface.c:1059 UCX  ERROR ibv_create_cq(cqe=256) failed: Connection timed out


           ************************************************************
           *        Program running with 64 parallel MPI-processes    *
           *              working on a common directory               *
           ************************************************************

-------------------------------------------------------------------------------------------
                                      ORCA LEAN-SCF
                              memory conserving SCF solver
-------------------------------------------------------------------------------------------

----------------------------------------D-I-I-S--------------------------------------------
Iteration    Energy (Eh)           Delta-E    RMSDP     MaxDP     DIISErr   Damp  Time(sec)
-------------------------------------------------------------------------------------------
               ***  Starting incremental Fock matrix formation  ***
    1    -153.7074615516141876     0.00e+00  8.22e-04  2.10e-02  7.15e-02  0.700   0.3
    2    -153.7335471037258117    -2.61e-02  7.33e-04  1.82e-02  4.59e-02  0.700   0.3
                               ***Turning on AO-DIIS***
    3    -153.7484952735020727    -1.49e-02  6.09e-04  2.25e-02  2.64e-02  0.700   0.3
    4    -153.7578955611580227    -9.40e-03  1.54e-03  5.88e-02  1.99e-02  0.000   0.3
    5    -153.7800303461949341    -2.21e-02  1.72e-04  5.27e-03  7.46e-03  0.000   0.3
    6    -153.7805858439207043    -5.55e-04  1.09e-04  3.14e-03  4.45e-03  0.000   0.3
                              *** Initializing SOSCF ***
---------------------------------------S-O-S-C-F--------------------------------------
Iteration    Energy (Eh)           Delta-E    RMSDP     MaxDP     MaxGrad    Time(sec)
--------------------------------------------------------------------------------------
    7    -153.7808599408679129    -2.74e-04  6.09e-05  1.89e-03  3.13e-03     0.4
               *** Restarting incremental Fock matrix formation ***
    8    -153.7809626859928471    -1.03e-04  2.91e-05  8.19e-04  2.03e-03     0.3
    9    -153.7809951530214505    -3.25e-05  4.43e-05  8.47e-04  1.22e-03     0.3
   10    -153.7810103727866533    -1.52e-05  1.39e-05  4.55e-04  6.27e-04     0.3
   11    -153.7810142183230369    -3.85e-06  6.96e-06  2.59e-04  3.70e-04     0.3
   12    -153.7810156299458129    -1.41e-06  4.22e-05  1.86e-03  3.65e-04     0.3
   13    -153.7810217952479945    -6.17e-06  5.80e-05  2.66e-03  3.38e-04     0.3
   14    -153.7810280032035735    -6.21e-06  8.72e-05  3.90e-03  4.54e-04     0.3
   15    -153.7810353145323745    -7.31e-06  6.67e-05  2.80e-03  4.59e-04     0.3
   16    -153.7810398600487645    -4.55e-06  2.30e-05  8.72e-04  3.46e-04     0.3
   17    -153.7810413441733033    -1.48e-06  5.48e-06  2.24e-04  1.57e-04     0.3
   18    -153.7810415848479693    -2.41e-07  3.73e-06  1.53e-04  4.95e-05     0.3
   19    -153.7810416248030663    -4.00e-08  1.08e-06  4.45e-05  2.23e-05     0.3
   20    -153.7810416325592655    -7.76e-09  7.68e-07  2.63e-05  1.05e-05     0.2
                 **** Energy Check signals convergence ****

               *****************************************************
               *                     SUCCESS                       *
               *           SCF CONVERGED AFTER  20 CYCLES          *
               *****************************************************

Recomputing exchange energy using gridx3       ... done (    0.177 sec)
Old exchange energy                            :     -6.212540746 Eh
New exchange energy                            :     -6.212536655 Eh
Exchange energy change after final integration :      0.000004091 Eh
Total energy after final integration           :   -153.781037542 Eh
             **** ENERGY FILE WAS UPDATED (orca.en.tmp) ****

----------------
TOTAL SCF ENERGY
----------------

Total Energy       :       -153.78103754188444 Eh           -4184.59477 eV

Components:
Nuclear Repulsion  :         68.84838834733688 Eh            1873.45989 eV
Electronic Energy  :       -222.62942997989614 Eh           -6058.05478 eV
One Electron Energy:       -344.19607688271429 Eh           -9366.05141 eV
Two Electron Energy:        121.56664690281815 Eh            3307.99664 eV

Virial components:
Potential Energy   :       -307.33011548723289 Eh           -8362.87760 eV
Kinetic Energy     :        153.54907794534847 Eh            4178.28283 eV
Virial Ratio       :          2.00151065444117

DFT components:
N(Alpha)           :       12.999994174368 electrons
N(Beta)            :       10.999984488874 electrons
N(Total)           :       23.999978663242 electrons
E(XC)              :      -14.747589128144 Eh       

---------------
SCF CONVERGENCE
---------------

  Last Energy change         ...    7.7562e-09  Tolerance :   1.0000e-08
  Last MAX-Density change    ...    2.6292e-05  Tolerance :   1.0000e-07
  Last RMS-Density change    ...    7.6768e-07  Tolerance :   5.0000e-09
  Last DIIS Error            ...    3.1306e-03  Tolerance :   5.0000e-07
  Last Orbital Gradient      ...    1.0511e-05  Tolerance :   1.0000e-05
  Last Orbital Rotation      ...    1.5801e-04  Tolerance :   1.0000e-05


----------------------
UHF SPIN CONTAMINATION
----------------------

Warning: in a DFT calculation there is little theoretical justification to 
         calculate <S**2> as in Hartree-Fock theory. We will do it anyways
         but you should keep in mind that the values have only limited relevance

Expectation value of <S**2>     :     2.007541
Ideal value S*(S+1) for S=1.0   :     2.000000
Deviation                       :     0.007541

----------------
ORBITAL ENERGIES
----------------
                 SPIN UP ORBITALS
  NO   OCC          E(Eh)            E(eV) 
   0   1.0000     -19.387519      -527.5612 
   1   1.0000     -10.401936      -283.0511 
   2   1.0000     -10.357174      -281.8330 
   3   1.0000      -1.168766       -31.8037 
   4   1.0000      -0.883476       -24.0406 
   5   1.0000      -0.745273       -20.2799 
   6   1.0000      -0.629251       -17.1228 
   7   1.0000      -0.586020       -15.9464 
   8   1.0000      -0.555664       -15.1204 
   9   1.0000      -0.523685       -14.2502 
  10   1.0000      -0.439529       -11.9602 
  11   1.0000      -0.416305       -11.3282 
  12   1.0000      -0.326334        -8.8800 
  13   0.0000       0.041605         1.1321 
  14   0.0000       0.062350         1.6966 
  15   0.0000       0.076960         2.0942 
  16   0.0000       0.089041         2.4229 
  17   0.0000       0.115571         3.1449 
  18   0.0000       0.129300         3.5184 
  19   0.0000       0.132494         3.6053 
  20   0.0000       0.140007         3.8098 
  21   0.0000       0.172473         4.6932 
  22   0.0000       0.193671         5.2700 
  23   0.0000       0.205976         5.6049 

                 SPIN DOWN ORBITALS
  NO   OCC          E(Eh)            E(eV) 
   0   1.0000     -19.362471      -526.8796 
   1   1.0000     -10.403174      -283.0848 
   2   1.0000     -10.344229      -281.4808 
   3   1.0000      -1.112742       -30.2792 
   4   1.0000      -0.849667       -23.1206 
   5   1.0000      -0.719773       -19.5860 
   6   1.0000      -0.599093       -16.3021 
   7   1.0000      -0.556131       -15.1331 
   8   1.0000      -0.528111       -14.3706 
   9   1.0000      -0.491782       -13.3821 
  10   1.0000      -0.383333       -10.4310 
  11   0.0000      -0.052210        -1.4207 
  12   0.0000      -0.001723        -0.0469 
  13   0.0000       0.040291         1.0964 
  14   0.0000       0.062325         1.6959 
  15   0.0000       0.076874         2.0918 
  16   0.0000       0.091753         2.4967 
  17   0.0000       0.115964         3.1556 
  18   0.0000       0.130281         3.5451 
  19   0.0000       0.136568         3.7162 
  20   0.0000       0.143502         3.9049 
  21   0.0000       0.180475         4.9110 
*Only the first 10 virtual orbitals were printed.

                    ********************************
                    * MULLIKEN POPULATION ANALYSIS *
                    ********************************

--------------------------------------------
MULLIKEN ATOMIC CHARGES AND SPIN POPULATIONS
--------------------------------------------
   0 O :   -0.325166    0.959732
   1 C :   -0.006699    0.002473
   2 C :   -0.605400    0.839032
   3 H :    0.189068    0.093819
   4 H :    0.220683    0.043585
   5 H :    0.263902    0.034733
   6 H :    0.263612    0.026626
Sum of atomic charges         :   -0.0000000
Sum of atomic spin populations:    2.0000000

-----------------------------------------------------
MULLIKEN REDUCED ORBITAL CHARGES AND SPIN POPULATIONS
-----------------------------------------------------
CHARGE
  0 O s       :     3.995820  s :     3.995820
      pz      :     1.113915  p :     4.308897
      px      :     1.374031
      py      :     1.820951
      dz2     :     0.002520  d :     0.019226
      dxz     :     0.005723
      dyz     :     0.002111
      dx2y2   :     0.004007
      dxy     :     0.004866
      f0      :     0.000102  f :     0.001222
      f+1     :     0.000152
      f-1     :     0.000045
      f+2     :     0.000142
      f-2     :     0.000211
      f+3     :     0.000223
      f-3     :     0.000347

  1 C s       :     3.201873  s :     3.201873
      pz      :     1.027124  p :     2.640694
      px      :     0.716913
      py      :     0.896656
      dz2     :     0.003348  d :     0.153917
      dxz     :     0.037567
      dyz     :     0.045081
      dx2y2   :     0.057896
      dxy     :     0.010026
      f0      :     0.000618  f :     0.010216
      f+1     :     0.001189
      f-1     :     0.000678
      f+2     :     0.001407
      f-2     :     0.001559
      f+3     :     0.002993
      f-3     :     0.001773

  2 C s       :     3.601561  s :     3.601561
      pz      :     1.064789  p :     2.990888
      px      :     0.927996
      py      :     0.998103
      dz2     :     0.001077  d :     0.009086
      dxz     :     0.008044
      dyz     :    -0.004363
      dx2y2   :     0.006766
      dxy     :    -0.002438
      f0      :     0.000441  f :     0.003865
      f+1     :     0.000400
      f-1     :     0.000598
      f+2     :     0.000525
      f-2     :     0.000699
      f+3     :     0.000722
      f-3     :     0.000480

  3 H s       :     0.774745  s :     0.774745
      pz      :     0.017905  p :     0.033397
      px      :     0.014873
      py      :     0.000618
      dz2     :     0.000807  d :     0.002790
      dxz     :     0.000575
      dyz     :     0.000560
      dx2y2   :     0.000401
      dxy     :     0.000448

  4 H s       :     0.737416  s :     0.737416
      pz      :     0.011195  p :     0.039108
      px      :     0.013054
      py      :     0.014860
      dz2     :     0.000554  d :     0.002793
      dxz     :     0.000434
      dyz     :     0.000641
      dx2y2   :     0.000446
      dxy     :     0.000719

  5 H s       :     0.692206  s :     0.692206
      pz      :     0.004901  p :     0.041545
      px      :     0.018875
      py      :     0.017769
      dz2     :     0.000562  d :     0.002347
      dxz     :     0.000343
      dyz     :     0.000371
      dx2y2   :     0.000582
      dxy     :     0.000490

  6 H s       :     0.696719  s :     0.696719
      pz      :     0.006022  p :     0.037526
      px      :     0.015813
      py      :     0.015691
      dz2     :     0.000513  d :     0.002143
      dxz     :     0.000789
      dyz     :     0.000766
      dx2y2   :     0.000035
      dxy     :     0.000039


SPIN
  0 O s       :     0.008407  s :     0.008407
      pz      :     0.770134  p :     0.955494
      px      :     0.176704
      py      :     0.008657
      dz2     :    -0.000531  d :    -0.004013
      dxz     :    -0.001713
      dyz     :    -0.000905
      dx2y2   :    -0.000526
      dxy     :    -0.000339
      f0      :    -0.000063  f :    -0.000156
      f+1     :    -0.000064
      f-1     :    -0.000004
      f+2     :    -0.000028
      f-2     :    -0.000022
      f+3     :     0.000015
      f-3     :     0.000010

  1 C s       :     0.012858  s :     0.012858
      pz      :    -0.014878  p :    -0.079588
      px      :    -0.052879
      py      :    -0.011831
      dz2     :     0.004616  d :     0.066074
      dxz     :     0.020148
      dyz     :     0.022971
      dx2y2   :     0.019057
      dxy     :    -0.000717
      f0      :     0.000049  f :     0.003129
      f+1     :     0.000907
      f-1     :     0.000233
      f+2     :     0.000465
      f-2     :     0.000339
      f+3     :     0.000269
      f-3     :     0.000867

  2 C s       :    -0.048075  s :    -0.048075
      pz      :     0.016265  p :     0.899665
      px      :     0.572448
      py      :     0.310953
      dz2     :    -0.000349  d :    -0.011468
      dxz     :    -0.000067
      dyz     :    -0.006805
      dx2y2   :    -0.001681
      dxy     :    -0.002567
      f0      :    -0.000258  f :    -0.001089
      f+1     :    -0.000030
      f-1     :     0.000011
      f+2     :    -0.000051
      f-2     :    -0.000302
      f+3     :    -0.000352
      f-3     :    -0.000108

  3 H s       :     0.082596  s :     0.082596
      pz      :     0.002975  p :     0.011152
      px      :     0.007425
      py      :     0.000752
      dz2     :    -0.000008  d :     0.000071
      dxz     :     0.000052
      dyz     :     0.000035
      dx2y2   :    -0.000007
      dxy     :    -0.000001

  4 H s       :     0.040063  s :     0.040063
      pz      :     0.001897  p :     0.003522
      px      :     0.000140
      py      :     0.001485
      dz2     :    -0.000013  d :    -0.000001
      dxz     :    -0.000004
      dyz     :     0.000002
      dx2y2   :     0.000000
      dxy     :     0.000015

  5 H s       :     0.008590  s :     0.008590
      pz      :     0.000939  p :     0.025032
      px      :     0.014954
      py      :     0.009138
      dz2     :     0.000128  d :     0.001111
      dxz     :     0.000249
      dyz     :     0.000089
      dx2y2   :     0.000494
      dxy     :     0.000151

  6 H s       :    -0.001469  s :    -0.001469
      pz      :     0.001666  p :     0.027067
      px      :     0.014343
      py      :     0.011058
      dz2     :     0.000025  d :     0.001028
      dxz     :     0.000587
      dyz     :     0.000381
      dx2y2   :     0.000029
      dxy     :     0.000007



                     *******************************
                     * LOEWDIN POPULATION ANALYSIS *
                     *******************************

-------------------------------------------
LOEWDIN ATOMIC CHARGES AND SPIN POPULATIONS
-------------------------------------------
   0 O :    0.068947    0.899612
   1 C :   -0.226533    0.196476
   2 C :    0.280489    0.646663
   3 H :    0.013037    0.062058
   4 H :    0.006326    0.023708
   5 H :   -0.076550    0.083950
   6 H :   -0.065716    0.087532

----------------------------------------------------
LOEWDIN REDUCED ORBITAL CHARGES AND SPIN POPULATIONS
----------------------------------------------------
CHARGE
  0 O s       :     3.478570  s :     3.478570
      pz      :     1.069633  p :     4.189496
      px      :     1.427284
      py      :     1.692578
      dz2     :     0.028451  d :     0.259008
      dxz     :     0.064652
      dyz     :     0.032274
      dx2y2   :     0.064292
      dxy     :     0.069338
      f0      :     0.000333  f :     0.003980
      f+1     :     0.000649
      f-1     :     0.000173
      f+2     :     0.000530
      f-2     :     0.000655
      f+3     :     0.000863
      f-3     :     0.000778

  1 C s       :     2.635261  s :     2.635261
      pz      :     0.891760  p :     2.599028
      px      :     0.819224
      py      :     0.888044
      dz2     :     0.110475  d :     0.905228
      dxz     :     0.190581
      dyz     :     0.158157
      dx2y2   :     0.217627
      dxy     :     0.228387
      f0      :     0.008556  f :     0.087017
      f+1     :     0.010983
      f-1     :     0.006386
      f+2     :     0.010770
      f-2     :     0.011458
      f+3     :     0.022049
      f-3     :     0.016816

  2 C s       :     2.711906  s :     2.711906
      pz      :     0.964603  p :     2.583075
      px      :     0.762174
      py      :     0.856297
      dz2     :     0.105997  d :     0.399987
      dxz     :     0.066442
      dyz     :     0.099183
      dx2y2   :     0.058021
      dxy     :     0.070344
      f0      :     0.003674  f :     0.024543
      f+1     :     0.002761
      f-1     :     0.003923
      f+2     :     0.003005
      f-2     :     0.004721
      f+3     :     0.003411
      f-3     :     0.003047

  3 H s       :     0.673002  s :     0.673002
      pz      :     0.111852  p :     0.279380
      px      :     0.085451
      py      :     0.082077
      dz2     :     0.008546  d :     0.034581
      dxz     :     0.008669
      dyz     :     0.008740
      dx2y2   :     0.004026
      dxy     :     0.004600

  4 H s       :     0.689707  s :     0.689707
      pz      :     0.092455  p :     0.270352
      px      :     0.069044
      py      :     0.108854
      dz2     :     0.006537  d :     0.033615
      dxz     :     0.004103
      dyz     :     0.009050
      dx2y2   :     0.007040
      dxy     :     0.006885

  5 H s       :     0.732165  s :     0.732165
      pz      :     0.105629  p :     0.308916
      px      :     0.093917
      py      :     0.109370
      dz2     :     0.007463  d :     0.035469
      dxz     :     0.005337
      dyz     :     0.008008
      dx2y2   :     0.007462
      dxy     :     0.007198

  6 H s       :     0.735642  s :     0.735642
      pz      :     0.135454  p :     0.296856
      px      :     0.083030
      py      :     0.078372
      dz2     :     0.011831  d :     0.033218
      dxz     :     0.010382
      dyz     :     0.010337
      dx2y2   :     0.000344
      dxy     :     0.000324


SPIN
  0 O s       :     0.017984  s :     0.017984
      pz      :     0.692897  p :     0.865484
      px      :     0.157328
      py      :     0.015259
      dz2     :     0.002011  d :     0.016119
      dxz     :     0.006613
      dyz     :     0.005167
      dx2y2   :     0.000702
      dxy     :     0.001626
      f0      :    -0.000024  f :     0.000025
      f+1     :     0.000064
      f-1     :     0.000023
      f+2     :    -0.000030
      f-2     :     0.000004
      f+3     :     0.000006
      f-3     :    -0.000018

  1 C s       :    -0.003784  s :    -0.003784
      pz      :     0.005334  p :    -0.012251
      px      :    -0.007151
      py      :    -0.010434
      dz2     :     0.014037  d :     0.188058
      dxz     :     0.054213
      dyz     :     0.049689
      dx2y2   :     0.060882
      dxy     :     0.009238
      f0      :     0.000576  f :     0.024454
      f+1     :     0.007578
      f-1     :     0.001818
      f+2     :     0.003347
      f-2     :     0.002274
      f+3     :     0.002287
      f-3     :     0.006573

  2 C s       :     0.010679  s :     0.010679
      pz      :     0.016704  p :     0.639081
      px      :     0.415312
      py      :     0.207066
      dz2     :    -0.002519  d :    -0.002630
      dxz     :    -0.001600
      dyz     :     0.002476
      dx2y2   :     0.001067
      dxy     :    -0.002053
      f0      :    -0.000376  f :    -0.000467
      f+1     :     0.000093
      f-1     :     0.000352
      f+2     :    -0.000100
      f-2     :    -0.000402
      f+3     :    -0.000241
      f-3     :     0.000207

  3 H s       :     0.051057  s :     0.051057
      pz      :     0.004278  p :     0.011472
      px      :     0.008015
      py      :    -0.000821
      dz2     :    -0.000212  d :    -0.000471
      dxz     :     0.000005
      dyz     :    -0.000018
      dx2y2   :    -0.000097
      dxy     :    -0.000149

  4 H s       :     0.020790  s :     0.020790
      pz      :     0.001497  p :     0.003307
      px      :     0.002342
      py      :    -0.000532
      dz2     :    -0.000047  d :    -0.000389
      dxz     :    -0.000070
      dyz     :    -0.000128
      dx2y2   :    -0.000078
      dxy     :    -0.000066

  5 H s       :    -0.010891  s :    -0.010891
      pz      :     0.001968  p :     0.082930
      px      :     0.054089
      py      :     0.026872
      dz2     :     0.000443  d :     0.011912
      dxz     :     0.002932
      dyz     :     0.001120
      dx2y2   :     0.005997
      dxy     :     0.001420

  6 H s       :    -0.011023  s :    -0.011023
      pz      :     0.004812  p :     0.087007
      px      :     0.055204
      py      :     0.026991
      dz2     :     0.000655  d :     0.011548
      dxz     :     0.006797
      dyz     :     0.003756
      dx2y2   :     0.000322
      dxy     :     0.000018



                      *****************************
                      * MAYER POPULATION ANALYSIS *
                      *****************************

  NA   - Mulliken gross atomic population
  ZA   - Total nuclear charge
  QA   - Mulliken gross atomic charge
  VA   - Mayer's total valence
  BVA  - Mayer's bonded valence
  FA   - Mayer's free valence

  ATOM       NA         ZA         QA         VA         BVA        FA
  0 O      8.3252     8.0000    -0.3252     1.8289     1.0366     0.7923
  1 C      6.0067     6.0000    -0.0067     3.5186     3.5048     0.0138
  2 C      6.6054     6.0000    -0.6054     3.4394     2.6761     0.7633
  3 H      0.8109     1.0000     0.1891     1.0082     1.0022     0.0060
  4 H      0.7793     1.0000     0.2207     1.0203     1.0192     0.0012
  5 H      0.7361     1.0000     0.2639     0.9241     0.9237     0.0004
  6 H      0.7364     1.0000     0.2636     0.9036     0.9033     0.0004

  Mayer bond orders larger than 0.100000
B(  0-O ,  1-C ) :   0.8605 B(  1-C ,  2-C ) :   0.7494 B(  1-C ,  3-H ) :   0.9624 
B(  1-C ,  4-H ) :   0.9774 B(  2-C ,  5-H ) :   0.9509 B(  2-C ,  6-H ) :   0.9285 


-------
TIMINGS
-------

Total SCF time: 0 days 0 hours 0 min 7 sec 

Total time                  ....       7.478 sec
Sum of individual times     ....       7.453 sec  ( 99.7%)

SCF preparation             ....       1.630 sec  ( 21.8%)
Fock matrix formation       ....       4.561 sec  ( 61.0%)
  Startup                   ....       0.077 sec  (  1.7% of F)
  Split-RI-J                ....       0.484 sec  ( 10.6% of F)
  Chain of spheres X        ....       2.557 sec  ( 56.1% of F)
  XC integration            ....       1.164 sec  ( 25.5% of F)
    XC Preparation          ....       0.000 sec  (  0.0% of XC)
    Basis function eval.    ....       0.052 sec  (  4.4% of XC)
    Density eval.           ....       0.223 sec  ( 19.1% of XC)
    XC-Functional eval.     ....       0.015 sec  (  1.3% of XC)
    XC-Potential eval.      ....       0.282 sec  ( 24.3% of XC)
Diagonalization             ....       0.000 sec  (  0.0%)
Density matrix formation    ....       0.151 sec  (  2.0%)
Total Energy calculation    ....       0.135 sec  (  1.8%)
Population analysis         ....       0.038 sec  (  0.5%)
Orbital Transformation      ....       0.083 sec  (  1.1%)
[...]
[1741611241.227174] [ohm:3485281:0]        ib_iface.c:1059 UCX  ERROR ibv_create_cq(cqe=256) failed: Connection timed out
[1741611241.228740] [ohm:3485221:0]        ib_iface.c:1059 UCX  ERROR ibv_create_cq(cqe=256) failed: Connection timed out
[1741611241.230731] [ohm:3485289:0]        ib_iface.c:1059 UCX  ERROR ibv_create_cq(cqe=256) failed: Connection timed out
[1741611241.233050] [ohm:3485239:0]        ib_iface.c:1059 UCX  ERROR ibv_create_cq(cqe=256) failed: Connection timed out
[1741611241.233219] [ohm:3485282:0]        ib_iface.c:1059 UCX  ERROR ibv_create_cq(cqe=256) failed: Connection timed out
[1741611241.234141] [ohm:3485259:0]        ib_iface.c:1059 UCX  ERROR ibv_create_cq(cqe=256) failed: Connection timed out
[1741611241.235081] [ohm:3485271:0]        ib_iface.c:1059 UCX  ERROR ibv_create_cq(cqe=256) failed: Connection timed out
[1741611241.237183] [ohm:3485287:0]        ib_iface.c:1059 UCX  ERROR ibv_create_cq(cqe=256) failed: Connection timed out
[1741611241.238406] [ohm:3485276:0]        ib_iface.c:1059 UCX  ERROR ibv_create_cq(cqe=256) failed: Connection timed out
[1741611241.239671] [ohm:3485293:0]        ib_iface.c:1059 UCX  ERROR ibv_create_cq(cqe=256) failed: Connection timed out


           ************************************************************
           *        Program running with 64 parallel MPI-processes    *
           *              working on a common directory               *
           ************************************************************

------------------------------------------------------------------------------
                              ORCA PROPERTY CALCULATIONS
------------------------------------------------------------------------------

GBWName                                 ... orca.gbw
Number of atoms                         ...      7
Number of basis functions               ...    182
Max core memory                         ...   1024 MB

Electric properties:
Dipole moment                           ... YES
Quadrupole moment                       ...  NO
Static polarizability (Dipole/Dipole)   ...  NO
Static polarizability (Dipole/Quad.)    ...  NO
Static polarizability (Quad./Quad.)     ...  NO
Static polarizability (Velocity)        ...  NO

Atomic electric properties:
Dipole moment                           ...  NO
Quadrupole moment                       ...  NO
Static polarizability                   ...  NO

Choice of electric origin               ... Center of mass
Position of electric origin             ...     0.777393     0.118999     0.137680

General magnetic properties:
Magnetizability                         ...  NO

EPR properties:
g-Tensor (aka g-matrix)                 ...  NO
Zero-Field splitting spin-orbit         ...  NO
Zero-field splitting spin-spin          ...  NO
Hyperfine couplings                     ...  NO (   0 nuclei)
Quadrupole couplings                    ...  NO (   0 nuclei)
Contact density                         ...  NO (   0 nuclei)

NMR properties:
Chemical shifts                         ...  NO (   0 nuclei)
Spin-rotation constants                 ...  NO (   0 nuclei)
Spin-spin couplings                     ...  NO (   0 nuclei,    0 pairs)

Choice of magnetic origin               ... GIAO
Position of magnetic origin             ...     0.000000     0.000000     0.000000

Properties with geometric perturbations:
SCF Hessian                             ...  NO
IR spectrum                             ...  NO
VCD spectrum                            ...  NO
X-ray spectroscopy properties:
SCF XES/XAS/RIXS spectra                ...  NO


-------------
DIPOLE MOMENT
-------------

Method             : SCF
Type of density    : Electron Density
Multiplicity       :   3
Irrep              :   0
Energy             :  -153.7810375418844444 Eh
Relativity type    : 
Basis              : AO
                                X                 Y                 Z
Electronic contribution:     -2.218991480      -0.117649683       1.045054549
Nuclear contribution   :      2.868409337       0.459629546      -1.252304600
                        -----------------------------------------
Total Dipole Moment    :      0.649417858       0.341979863      -0.207250052
                        -----------------------------------------
Magnitude (a.u.)       :      0.762657436
Magnitude (Debye)      :      1.938521145



--------------------
Rotational spectrum 
--------------------
 
Rotational constants in cm-1:             1.426286             0.362290             0.320196 
Rotational constants in MHz :         42758.968734         10861.168785          9599.241564 

Dipole components along the rotational axes: 
x,y,z [a.u.] :    -0.578761    -0.490611     0.077351 
x,y,z [Debye]:    -1.471094    -1.247033     0.196612 

 

-------------
DIPOLE MOMENT
-------------

Method             : TDA/CIS
Type of density    : Electron Density
Level              : Relaxed density
State              :   2
Multiplicity       :   3
Irrep              :   0
Energy             :     0.0000000000000000 Eh
Relativity type    : 
Basis              : AO
                                X                 Y                 Z
Electronic contribution:     -2.290147749      -0.113737034       1.079498429
Nuclear contribution   :      2.868409337       0.459629546      -1.252304600
                        -----------------------------------------
Total Dipole Moment    :      0.578261588       0.345892512      -0.172806171
                        -----------------------------------------
Magnitude (a.u.)       :      0.695622072
Magnitude (Debye)      :      1.768130791



--------------------
Rotational spectrum 
--------------------
 
Rotational constants in cm-1:             1.426286             0.362290             0.320196 
Rotational constants in MHz :         42758.968734         10861.168785          9599.241564 

Dipole components along the rotational axes: 
x,y,z [a.u.] :    -0.500892    -0.477182     0.072764 
x,y,z [Debye]:    -1.273168    -1.212899     0.184950 

 

Dipole moment calculation done in   0.0 sec 

Maximum memory used throughout the entire PROP-calculation: 7.4 MB
[1741611243.104173] [ohm:3485498:0]        ib_iface.c:1059 UCX  ERROR ibv_create_cq(cqe=256) failed: Connection timed out
[1741611243.109730] [ohm:3485497:0]        ib_iface.c:1059 UCX  ERROR ibv_create_cq(cqe=256) failed: Connection timed out
[1741611243.134702] [ohm:3485526:0]        ib_iface.c:1059 UCX  ERROR ibv_create_cq(cqe=256) failed: Connection timed out
[1741611243.138761] [ohm:3485505:0]        ib_iface.c:1059 UCX  ERROR ibv_create_cq(cqe=256) failed: Connection timed out
[1741611243.173588] [ohm:3485496:0]        ib_iface.c:1059 UCX  ERROR ibv_create_cq(cqe=256) failed: Connection timed out
[1741611243.183680] [ohm:3485501:0]        ib_iface.c:1059 UCX  ERROR ibv_create_cq(cqe=256) failed: Connection timed out
[1741611243.199038] [ohm:3485585:0]        ib_iface.c:1059 UCX  ERROR ibv_create_cq(cqe=256) failed: Connection timed out
[1741611243.202730] [ohm:3485562:0]        ib_iface.c:1059 UCX  ERROR ibv_create_cq(cqe=256) failed: Connection timed out
[1741611243.205431] [ohm:3485565:0]        ib_iface.c:1059 UCX  ERROR ibv_create_cq(cqe=256) failed: Connection timed out
[1741611243.206970] [ohm:3485582:0]        ib_iface.c:1059 UCX  ERROR ibv_create_cq(cqe=256) failed: Connection timed out
[1741611243.208223] [ohm:3485608:0]        ib_iface.c:1059 UCX  ERROR ibv_create_cq(cqe=256) failed: Connection timed out
[1741611243.208465] [ohm:3485616:0]        ib_iface.c:1059 UCX  ERROR ibv_create_cq(cqe=256) failed: Connection timed out
[1741611243.211555] [ohm:3485530:0]        ib_iface.c:1059 UCX  ERROR ibv_create_cq(cqe=256) failed: Connection timed out
[1741611243.265271] [ohm:3485599:0]        ib_iface.c:1059 UCX  ERROR ibv_create_cq(cqe=256) failed: Connection timed out
[1741611243.266310] [ohm:3485536:0]        ib_iface.c:1059 UCX  ERROR ibv_create_cq(cqe=256) failed: Connection timed out
[1741611243.267496] [ohm:3485602:0]        ib_iface.c:1059 UCX  ERROR ibv_create_cq(cqe=256) failed: Connection timed out
[1741611243.268466] [ohm:3485611:0]        ib_iface.c:1059 UCX  ERROR ibv_create_cq(cqe=256) failed: Connection timed out
[1741611243.284597] [ohm:3485519:0]        ib_iface.c:1059 UCX  ERROR ibv_create_cq(cqe=256) failed: Connection timed out
[1741611243.287864] [ohm:3485623:0]        ib_iface.c:1059 UCX  ERROR ibv_create_cq(cqe=256) failed: Connection timed out
[1741611243.290734] [ohm:3485512:0]        ib_iface.c:1059 UCX  ERROR ibv_create_cq(cqe=256) failed: Connection timed out
[1741611243.296422] [ohm:3485524:0]        ib_iface.c:1059 UCX  ERROR ibv_create_cq(cqe=256) failed: Connection timed out
[1741611243.313244] [ohm:3485555:0]        ib_iface.c:1059 UCX  ERROR ibv_create_cq(cqe=256) failed: Connection timed out
[1741611243.324568] [ohm:3485607:0]        ib_iface.c:1059 UCX  ERROR ibv_create_cq(cqe=256) failed: Connection timed out
[1741611243.339435] [ohm:3485516:0]        ib_iface.c:1059 UCX  ERROR ibv_create_cq(cqe=256) failed: Connection timed out
[1741611243.341061] [ohm:3485574:0]        ib_iface.c:1059 UCX  ERROR ibv_create_cq(cqe=256) failed: Connection timed out
[1741611243.343160] [ohm:3485578:0]        ib_iface.c:1059 UCX  ERROR ibv_create_cq(cqe=256) failed: Connection timed out
[1741611243.343882] [ohm:3485593:0]        ib_iface.c:1059 UCX  ERROR ibv_create_cq(cqe=256) failed: Connection timed out
[1741611243.358818] [ohm:3485553:0]        ib_iface.c:1059 UCX  ERROR ibv_create_cq(cqe=256) failed: Connection timed out
[1741611243.358822] [ohm:3485626:0]        ib_iface.c:1059 UCX  ERROR ibv_create_cq(cqe=256) failed: Connection timed out
[1741611243.359270] [ohm:3485576:0]        ib_iface.c:1059 UCX  ERROR ibv_create_cq(cqe=256) failed: Connection timed out
[1741611243.362655] [ohm:3485509:0]        ib_iface.c:1059 UCX  ERROR ibv_create_cq(cqe=256) failed: Connection timed out
[1741611243.363368] [ohm:3485517:0]        ib_iface.c:1059 UCX  ERROR ibv_create_cq(cqe=256) failed: Connection timed out
[1741611243.366933] [ohm:3485507:0]        ib_iface.c:1059 UCX  ERROR ibv_create_cq(cqe=256) failed: Connection timed out
[1741611243.372829] [ohm:3485541:0]        ib_iface.c:1059 UCX  ERROR ibv_create_cq(cqe=256) failed: Connection timed out
[1741611243.381924] [ohm:3485511:0]        ib_iface.c:1059 UCX  ERROR ibv_create_cq(cqe=256) failed: Connection timed out
[1741611243.388672] [ohm:3485520:0]        ib_iface.c:1059 UCX  ERROR ibv_create_cq(cqe=256) failed: Connection timed out
[1741611243.402874] [ohm:3485619:0]        ib_iface.c:1059 UCX  ERROR ibv_create_cq(cqe=256) failed: Connection timed out
[1741611243.404260] [ohm:3485632:0]        ib_iface.c:1059 UCX  ERROR ibv_create_cq(cqe=256) failed: Connection timed out
[1741611243.404402] [ohm:3485648:0]        ib_iface.c:1059 UCX  ERROR ibv_create_cq(cqe=256) failed: Connection timed out
[1741611243.407149] [ohm:3485503:0]        ib_iface.c:1059 UCX  ERROR ibv_create_cq(cqe=256) failed: Connection timed out
[1741611243.412309] [ohm:3485546:0]        ib_iface.c:1059 UCX  ERROR ibv_create_cq(cqe=256) failed: Connection timed out
[1741611243.420070] [ohm:3485514:0]        ib_iface.c:1059 UCX  ERROR ibv_create_cq(cqe=256) failed: Connection timed out
[1741611243.424394] [ohm:3485523:0]        ib_iface.c:1059 UCX  ERROR ibv_create_cq(cqe=256) failed: Connection timed out
[1741611243.424953] [ohm:3485551:0]        ib_iface.c:1059 UCX  ERROR ibv_create_cq(cqe=256) failed: Connection timed out
[1741611243.437836] [ohm:3485513:0]        ib_iface.c:1059 UCX  ERROR ibv_create_cq(cqe=256) failed: Connection timed out
[1741611243.439509] [ohm:3485522:0]        ib_iface.c:1059 UCX  ERROR ibv_create_cq(cqe=256) failed: Connection timed out
[1741611243.444781] [ohm:3485502:0]        ib_iface.c:1059 UCX  ERROR ibv_create_cq(cqe=256) failed: Connection timed out
[1741611243.445553] [ohm:3485533:0]        ib_iface.c:1059 UCX  ERROR ibv_create_cq(cqe=256) failed: Connection timed out
[1741611243.447078] [ohm:3485598:0]        ib_iface.c:1059 UCX  ERROR ibv_create_cq(cqe=256) failed: Connection timed out
[1741611243.448872] [ohm:3485570:0]        ib_iface.c:1059 UCX  ERROR ibv_create_cq(cqe=256) failed: Connection timed out
[1741611243.450024] [ohm:3485510:0]        ib_iface.c:1059 UCX  ERROR ibv_create_cq(cqe=256) failed: Connection timed out
[1741611243.450349] [ohm:3485518:0]        ib_iface.c:1059 UCX  ERROR ibv_create_cq(cqe=256) failed: Connection timed out
[1741611243.450668] [ohm:3485508:0]        ib_iface.c:1059 UCX  ERROR ibv_create_cq(cqe=256) failed: Connection timed out
[1741611243.454006] [ohm:3485641:0]        ib_iface.c:1059 UCX  ERROR ibv_create_cq(cqe=256) failed: Connection timed out
[1741611243.459869] [ohm:3485589:0]        ib_iface.c:1059 UCX  ERROR ibv_create_cq(cqe=256) failed: Connection timed out
[1741611243.464108] [ohm:3485499:0]        ib_iface.c:1059 UCX  ERROR ibv_create_cq(cqe=256) failed: Connection timed out
[1741611243.464197] [ohm:3485525:0]        ib_iface.c:1059 UCX  ERROR ibv_create_cq(cqe=256) failed: Connection timed out
[1741611243.464497] [ohm:3485542:0]        ib_iface.c:1059 UCX  ERROR ibv_create_cq(cqe=256) failed: Connection timed out
[1741611243.464515] [ohm:3485521:0]        ib_iface.c:1059 UCX  ERROR ibv_create_cq(cqe=256) failed: Connection timed out
[1741611243.465107] [ohm:3485506:0]        ib_iface.c:1059 UCX  ERROR ibv_create_cq(cqe=256) failed: Connection timed out
[1741611243.466781] [ohm:3485515:0]        ib_iface.c:1059 UCX  ERROR ibv_create_cq(cqe=256) failed: Connection timed out
[1741611243.467427] [ohm:3485500:0]        ib_iface.c:1059 UCX  ERROR ibv_create_cq(cqe=256) failed: Connection timed out
[1741611243.467644] [ohm:3485504:0]        ib_iface.c:1059 UCX  ERROR ibv_create_cq(cqe=256) failed: Connection timed out
[1741611243.468832] [ohm:3485618:0]        ib_iface.c:1059 UCX  ERROR ibv_create_cq(cqe=256) failed: Connection timed out

--------------------------------
SUGGESTED CITATIONS FOR THIS RUN
--------------------------------

Below you find a list of papers that are relevant to this ORCA run
We neither can nor want to force you to cite these papers, but we appreciate if you do
You receive ORCA, which is the product of decades of hard work by many enthusiastic individuals, for free
The only thing we kindly ask in return is that you cite our papers,
We deeply appreciate it, if you show your appreciation for ORCA by not just citing the generic ORCA reference.

Please note that relegating all ORCA citations to the supporting information does *not* help us.
SI sections are not indexed - citations you put there will not count into any citation statistics
But we need these citations in order to attract the funding resources that allow us to do what we are doing

Therefore, if you are a happy ORCA user, please consider citing a few of the papers listed below in the main body of your paper

In addition to the list printed below, the program has created the file orca.bibtex that contains the list in bibtex format
You can import this file easily into all common literature databanks and citation aid programs


List of essential papers. We consider these as the minimum necessary citations

  1. Neese,F.
     Software update: the ORCA program system, version 5.0
     WIRES Comput. Molec. Sci., 2022 12(1)e1606
     doi.org/10.1002/wcms.1606

List of papers to cite with high priority. The work reported in these papers was absolutely
necessary for this run to complete.
Our perspective: the developers of density functionals and basis sets usually get cited in chemistry papers
Good! But without the algorithms to do something with them, the functionals or basis sets would not do anything.
Hence, in our opinion, the algorithm design and method developments papers are equally worthy of getting cited

  1. Neese,F.; Olbrich,G.
     Efficient use of the resolution of the identity approximation in time-dependent density functional calculations with hybrid density functionals
     Chem. Phys. Lett., 2002 362 170-178
     doi.org/10.1016/s0009-2614(02)01053-9
  2. Neese,F.
     An improvement of the resolution of the identity approximation for the formation of the Coulomb matrix
     J. Comp. Chem., 2003 24(14)1740-1747
     doi.org/10.1002/jcc.10318
  3. Neese,F.; Wennmohs,F.; Hansen,A.; Becker,U.
     Efficient, approximate and parallel Hartree-Fock and hybrid DFT calculations. A 'chain-of-spheres' algorithm for the Hartree-Fock exchange
     Chem. Phys., 2009 356(1-3)98-109
     doi.org/10.1016/j.chemphys.2008.10.036
  4. Petrenko,T.; Kossmann,S.; Neese,F.
     Efficient time-dependent density functional theory approximations for hybrid density functionals: Analytical gradients and parallelization
     J. Chem. Phys., 2011 134 054116
     doi.org/10.1063/1.3533441
  5. Helmich-Paris,B.; de Souza,B.; Neese,F.; Izsák,R.
     An improved chain of spheres for exchange algorithm
     J. Chem. Phys., 2021 155 104109
     doi.org/doi: 10.1063/5.0058766.
  6. Neese,F.
     The SHARK Integral Generation and Digestion System
     J. Comp. Chem., 2022  1-16
     doi.org/10.1002/jcc.26942
  7. Lehtola,S.; Steigemann,C.; Oliveira,M.; Marques,M.
     Recent developments in Libxc - A comprehensive library of functionals for density functional theory
     Software X, 2018 7 
     doi.org/10.1016/j.softx.2017.11.002
  8. Grimme,S.; Antony,J.; Ehrlich,S.; Krieg,H.
     A consistent and accurate ab initio parametrization of density functional dispersion correction (DFT-D) for the 94 elements H-Pu
     J. Chem. Phys., 2010 132 154104-XXXX
     doi.org/10.1063/1.3382344
  9. Grimme,S.; Ehrlich,S.; Goerigk,L.
     Effect of the damping function in dispersion corrected density functional theory
     J. Comput. Chem., 2011 32(7)1456-1465
     doi.org/10.1002/jcc.21759

List of suggested additional citations. These are papers that are important in the 'surrounding' of 
of this run, or papers that preceded the highly important papers. If you like your results we are grateful for a citation.

  1. Izsak,R.; Neese,F.
     An overlap fitted chain of spheres exchange method
     J. Chem. Phys., 2011 135 144105
     doi.org/10.1063/1.3646921
  2. Izsak,R.; Hansen,A.; Neese,F.
     The resolution of identity and chain of spheres approximations for the LPNO-CCSD singles Fock term
     Molec. Phys., 2012 110 2413-2417
     doi.org/10.1080/00268976.2012.687466
  3. Neese,F.
     The ORCA program system
     WIRES Comput. Molec. Sci., 2012 2(1)73-78
     doi.org/10.1002/wcms.81
  4. Izsak,R.; Neese,F.; Klopper,W.
     Robust fitting techniques in the chain of spheres approximation to the Fock exchange: The role of the complementary space
     J. Chem. Phys., 2013 139 
     doi.org/10.1063/1.4819264
  5. Neese,F.
     Software update: the ORCA program system, version 4.0
     WIRES Comput. Molec. Sci., 2018 8(1)1-6
     doi.org/10.1002/wcms.1327
  6. Neese,F.; Wennmohs,F.; Becker,U.; Riplinger,C.
     The ORCA quantum chemistry program package
     J. Chem. Phys., 2020 152 Art. No. L224108
     doi.org/10.1063/5.0004608

List of optional additional citations

  1. Neese,F.
     Approximate second-order SCF convergence for spin unrestricted wavefunctions
     Chem. Phys. Lett., 2000 325(1-3)93-98
     doi.org/10.1016/s0009-2614(00)00662-x

Timings for individual modules:

Sum of individual times          ...       24.455 sec (=   0.408 min)
Startup calculation              ...        2.492 sec (=   0.042 min)  10.2 %
SCF iterations                   ...       10.061 sec (=   0.168 min)  41.1 %
Property integrals               ...        2.112 sec (=   0.035 min)   8.6 %
Property calculations            ...        2.006 sec (=   0.033 min)   8.2 %
CIS module                       ...        7.784 sec (=   0.130 min)  31.8 %
                             ****ORCA TERMINATED NORMALLY****
TOTAL RUN TIME: 0 days 0 hours 0 minutes 26 seconds 727 msec
