30
Properties=species:S:1:pos:R:3:momenta:R:3:forces:R:3 Coordinates=T from=T ORCA-job=T orca=T E=T -908.805346932436=T energy=-24728.510114473538 free_energy=-24728.510114473538 stress="-1.2540234629812423e-06 -4.899217073141469e-07 2.2462385928018786e-07 -4.899217073141469e-07 2.0122632412398325e-06 1.0317919037975914e-06 2.2462385928018786e-07 1.0317919037975914e-06 4.7594322384362075e-06" pbc="F F F"
O        3.26089446       0.49216574      -0.66168612       0.77649185       1.01800829       0.40788049       1.43713473       0.61134927      -0.84543940
O       -0.63868609       1.31988827      -2.45866281      -0.52422920       0.25235934       0.19484939      -0.62314190      -0.53180219       1.12323453
O        0.33499257      -2.98253610      -0.59720017      -0.47215594      -0.05929938      -1.50564673       0.04221329      -1.01941062      -0.65985320
O       -3.42465249      -1.38607371      -0.12300432      -0.73718387      -0.26577772      -0.15862404      -0.30024255      -0.28445736      -0.12809537
N        0.20516352      -1.55208342       1.11063625      -0.30714953      -1.29699101       0.60356716       1.02900241       1.40949923      -0.13677909
N       -2.06266541      -0.03582673       1.10876111      -0.58879928      -0.23838427       0.39319580       0.61079397       0.19400524      -1.76794469
N        1.74964603      -1.19749739      -0.68560832       0.13207634       0.82091188      -0.40286486      -1.02171966      -2.28318806      -1.21378277
N       -1.79329475      -0.25365479      -1.27849268      -0.36405845      -0.47960381      -0.12247077      -1.48625927      -0.77034243      -0.72777723
C        1.63092531       0.45549783       0.97495865       0.09925579      -0.03758116       0.64257155       0.54212537      -0.03116155       1.43121124
C       -0.56222028       1.45932580      -0.08796876       1.10150032      -0.06151734      -0.06277175      -0.98035185       0.63043892      -1.22120604
C        0.42366027      -0.13390167       1.57374858       0.13809710       0.31345312       0.98295060      -0.91933859      -1.71173802      -1.11664059
C       -0.87093984       0.78956173       1.16300822       0.18974502      -0.14592590      -0.32512171       0.31717149      -1.77753183      -0.63596719
C        2.17730728       1.59808901       1.74470115       0.97322754       0.60151240      -0.35456380      -0.43847590       0.07254970       1.06284267
C       -0.00860898       2.85088039      -0.08855451      -0.06173518      -0.05357529      -0.18287217      -2.50545232       1.15556490      -0.76847694
C        2.33225348      -0.06929462      -0.17927960       0.07783623       0.12581930      -0.50970324      -1.46081944       0.06849376       0.71513926
C       -1.01582823       0.85923052      -1.35630683       0.05400756      -0.04108220      -0.87133477       1.67194611       1.43389803      -0.60755150
C        0.75677783      -2.00132135      -0.07396304       0.48850031       0.05953691       0.75792056      -0.35837493       1.44990928       0.68508025
C       -2.50330448      -0.62453947      -0.09556493      -0.81120696      -0.08059483       0.49000601       0.44443219       0.61080568       0.53501656
H        0.45141054      -0.14555148       2.65019010      -0.36280777      -0.30079613      -0.14332595       0.14750563       0.11812345       0.30376443
H       -0.97116912       1.52413755       1.88437081       0.19418222       0.06495830       0.10533779      -0.16537782       0.99704215       1.40821417
H        2.50523226       1.21874074       2.74073141       0.14618161       0.16988375       0.02470629       0.19633887       0.02389614      -0.50546956
H        3.02057623       2.07331490       1.24521842       0.04347098      -0.10089068       0.04084488      -0.32880107       0.16207781       0.07811022
H        1.35042359       2.29917120       2.10218489      -0.02508960      -0.00128142      -0.03674706       0.90318153      -0.35513653      -0.71819931
H       -0.55200371       3.44815512      -0.90897378       0.14853227       0.04456290       0.09780336       0.56350632      -0.77398002       0.84090143
H       -0.19765799       3.43510573       0.83708539      -0.10150989      -0.17613980       0.02531833       0.04736655      -0.68380078      -0.25729670
H        0.98879549       2.98294383      -0.33536676      -0.12776662      -0.23733271      -0.03505080       1.70864699      -0.26041111      -0.35505076
H       -0.58819094      -2.12282830       1.38128258       0.15596939      -0.13490268       0.01380216       0.12833921       0.39835850       0.09861953
H       -2.61070370      -0.12643816       1.92534179       0.02717482       0.11083822      -0.10644775      -0.48495982      -0.23596713       0.22932372
H        1.89799008      -1.66698909      -1.62856021      -0.11876993      -0.16159173       0.11682705       0.43727608       1.17345637       1.21291340
H       -2.26106997      -0.50785809      -2.22957316      -0.14378714       0.29142366      -0.08003603       0.84633438       0.20945920       1.94115893
