
                                 *****************
                                 * O   R   C   A *
                                 *****************

                                            #,                                       
                                            ###                                      
                                            ####                                     
                                            #####                                    
                                            ######                                   
                                           ########,                                 
                                     ,,################,,,,,                         
                               ,,#################################,,                 
                          ,,##########################################,,             
                       ,#########################################, ''#####,          
                    ,#############################################,,   '####,        
                  ,##################################################,,,,####,       
                ,###########''''           ''''###############################       
              ,#####''   ,,,,##########,,,,          '''####'''          '####       
            ,##' ,,,,###########################,,,                        '##       
           ' ,,###''''                  '''############,,,                           
         ,,##''                                '''############,,,,        ,,,,,,###''
      ,#''                                            '''#######################'''  
     '                                                          ''''####''''         
             ,#######,   #######,   ,#######,      ##                                
            ,#'     '#,  ##    ##  ,#'     '#,    #''#        ,####,   ,####,        
            ##       ##  ##   ,#'  ##            #'  '#       #'       #'  '#        
            ##       ##  #######   ##           ,######,      #####,   #    #        
            '#,     ,#'  ##    ##  '#,     ,#' ,#      #,     #,   #   #,  ,#        
             '#######'   ##     ##  '#######'  #'      '#     '####' # '####'        



                #########################################################
                #                        -***-                          #
                #          Department of theory and spectroscopy        #
                #                                                       #
                #                      Frank Neese                      #
                #                                                       #
                #     Directorship, Architecture, Infrastructure        #
                #                    SHARK, DRIVERS                     #
                #        Core code/Algorithms in most modules           #
                #                                                       #
                #        Max Planck Institute fuer Kohlenforschung      #
                #                Kaiser Wilhelm Platz 1                 #
                #                 D-45470 Muelheim/Ruhr                 #
                #                      Germany                          #
                #                                                       #
                #                  All rights reserved                  #
                #                        -***-                          #
                #########################################################


                         Program Version 6.0.0  -   RELEASE  -


 With contributions from (in alphabetic order):
   Daniel Aravena         : Magnetic Suceptibility
   Michael Atanasov       : Ab Initio Ligand Field Theory (pilot matlab implementation)
   Alexander A. Auer      : GIAO ZORA, VPT2 properties, NMR spectrum
   Ute Becker             : All parallelization in ORCA, NUMFREQ, NUMCALC
   Giovanni Bistoni       : ED, misc. LED, open-shell LED, HFLD
   Martin Brehm           : Molecular dynamics
   Dmytro Bykov           : pre 5.0 version of the SCF Hessian
   Marcos Casanova-Páez   : Triplet and SCS-CIS(D). UHF-(DLPNO)-IP/EA/STEOM-CCSD. UHF-CVS-IP/STEOM-CCSD
   Vijay G. Chilkuri      : MRCI spin determinant printing, contributions to CSF-ICE
   Pauline Colinet        : FMM embedding
   Dipayan Datta          : RHF DLPNO-CCSD density
   Achintya Kumar Dutta   : EOM-CC, STEOM-CC
   Nicolas Foglia         : Exact transition moments, OPA infrastructure, MCD improvements
   Dmitry Ganyushin       : Spin-Orbit,Spin-Spin,Magnetic field MRCI
   Miquel Garcia          : C-PCM and meta-GGA Hessian, CCSD/C-PCM, Gaussian charge scheme
   Tiago L. C. Gouveia    : GS-ROHF, GS-ROCIS
   Yang Guo               : DLPNO-NEVPT2, F12-NEVPT2, CIM, IAO-localization
   Andreas Hansen         : Spin unrestricted coupled pair/coupled cluster methods
   Ingolf Harden          : AUTO-CI MPn and infrastructure 
   Benjamin Helmich-Paris : MC-RPA, TRAH-(SCF,CASSCF), AVAS, COSX integrals, SCF dyn. polar.
   Lee Huntington         : MR-EOM, pCC
   Robert Izsak           : Overlap fitted RIJCOSX, COSX-SCS-MP3, EOM
   Riya Kayal             : Wick's Theorem for AUTO-CI, AUTO-CI UHF-CCSDT
   Emily Kempfer          : AUTO-CI, RHF CISDT and CCSDT
   Christian Kollmar      : KDIIS, OOCD, Brueckner-CCSD(T), CCSD density, CASPT2, CASPT2-K, improved NEVPT2
   Axel Koslowski         : Symmetry handling
   Simone Kossmann        : Meta GGA functionals, TD-DFT gradient, OOMP2, (MP2 Hessian; deprecated post 5.0)
   Lucas Lang             : DCDCAS
   Marvin Lechner         : AUTO-CI (C++ implementation), FIC-MRCC
   Spencer Leger          : CASSCF response
   Dagmar Lenk            : GEPOL surface, SMD, ORCA-2-JSON
   Dimitrios Liakos       : Extrapolation schemes; Compound Job, initial MDCI parallelization
   Dimitrios Manganas     : Further ROCIS development; embedding schemes. LFT, Crystal Embedding
   Dimitrios Pantazis     : SARC Basis sets
   Anastasios Papadopoulos: AUTO-CI, single reference methods and gradients
   Taras Petrenko         : pre 6.0 DFT Hessian and TD-DFT gradient, (ASA, deprecated), ECA, 1-Electron XAS/XES, NRVS
   Peter Pinski           : DLPNO-MP2, DLPNO-MP2 Gradient
   Christoph Reimann      : Effective Core Potentials
   Marius Retegan         : Local ZFS, SOC
   Christoph Riplinger    : Optimizer, TS searches, QM/MM, DLPNO-CCSD(T), (RO)-DLPNO pert. Triples
   Michael Roemelt        : Original ROCIS implementation
   Masaaki Saitow         : Open-shell DLPNO-CCSD energy and density
   Barbara Sandhoefer     : DKH picture change effects
   Kantharuban Sivalingam : CASSCF convergence/infrastructure, NEVPT2 and variants, FIC-MRCI
   Bernardo de Souza      : ESD, SOC TD-DFT
   Georgi Stoychev        : AutoAux, RI-MP2 NMR, DLPNO-MP2 response, X2C
   Van Anh Tran           : RI-MP2 g-tensors
   Willem Van den Heuvel  : Paramagnetic NMR
   Zikuan Wang            : NOTCH, Electric field optimization 
   Frank Wennmohs         : Technical directorship and infrastructure
   Hang Xu                : AUTO-CI-Response properties 


 We gratefully acknowledge several colleagues who have allowed us to
 interface, adapt or use parts of their codes:
   Stefan Grimme, W. Hujo, H. Kruse, P. Pracht,  : VdW corrections, initial TS optimization,
                  C. Bannwarth, S. Ehlert,         DFT functionals, gCP, sTDA/sTD-DF
                  L. Wittmann, M. Mueller
   Ed Valeev, F. Pavosevic, A. Kumar             : LibInt (2-el integral package), F12 methods
   Garnet Chan, S. Sharma, J. Yang, R. Olivares  : DMRG
   Ulf Ekstrom                                   : XCFun DFT Library
   Mihaly Kallay                                 : mrcc  (arbitrary order and MRCC methods)
   Frank Weinhold                                : gennbo (NPA and NBO analysis)
   Simon Mueller                                 : openCOSMO-RS
   Christopher J. Cramer and Donald G. Truhlar   : smd solvation model
   Lars Goerigk                                  : TD-DFT with DH, B97 family of functionals
   V. Asgeirsson, H. Jonsson                     : NEB implementation
   FAccTs GmbH                                   : IRC, NEB, NEB-TS, DLPNO-Multilevel, CI-OPT
                                                   MM, QMMM, 2- and 3-layer-ONIOM, Crystal-QMMM,
                                                   LR-CPCM, SF, NACMEs, symmetry and pop. for TD-DFT,
                                                   nearIR, NL-DFT gradient (VV10), updates on ESD,
                                                   ML-optimized integration grids, MBIS, APM,
                                                   GOAT, DOCKER, SOLVATOR, interface openCOSMO-RS
   S Lehtola, MJT Oliveira, MAL Marques          : LibXC Library
   Liviu Ungur et al                             : ANISO software


 Your calculation uses the libint2 library for the computation of 2-el integrals
 For citations please refer to: http://libint.valeyev.net

 Your ORCA version has been built with support for libXC version: 6.2.2
 For citations please refer to: https://libxc.gitlab.io

 This ORCA versions uses:
   CBLAS   interface :  Fast vector & matrix operations
   LAPACKE interface :  Fast linear algebra routines
   SCALAPACK package :  Parallel linear algebra routines
   Shared memory     :  Shared parallel matrices
   BLAS/LAPACK       :  OpenBLAS 0.3.27  USE64BITINT DYNAMIC_ARCH NO_AFFINITY Zen SINGLE_THREADED
        Core in use  :  Zen
   Copyright (c) 2011-2014, The OpenBLAS Project


Your calculation utilizes the atom-pairwise dispersion correction
with the Becke-Johnson damping scheme (D3BJ)


Warning: RI is on but no J-basis has been assigned. Assigning Def2/J (nothing to worry about!)
================================================================================

----- Orbital basis set information -----
Your calculation utilizes the basis: def2-TZVPPD
   F. Weigend and R. Ahlrichs, Phys. Chem. Chem. Phys. 7, 3297 (2005).
   D. Rappoport and F. Furche, J. Chem. Phys. 133, 134105 (2010)
   D. Rappoport, J. Chem. Phys. 155, 124102 (2021).

----- AuxJ basis set information -----
Your calculation utilizes the auxiliary basis: def2/J
   F. Weigend, Phys. Chem. Chem. Phys. 8, 1057 (2006).

================================================================================
                                        WARNINGS
                       Please study these warnings very carefully!
================================================================================

Using LibXC functional ID 531 : wB97M-V exchange-correlation functional
[ 1]  N. Mardirossian and M. Head-Gordon.,  J. Chem. Phys. 144, 214110 (2016)
Using LibXC functional ID 531 : wB97M-V exchange-correlation functional
[ 1]  N. Mardirossian and M. Head-Gordon.,  J. Chem. Phys. 144, 214110 (2016)

WARNING: B97M-V or wB97M-V functional requested.
  ===> : libXC variant has now been activated.
         Any manually given DFX/HFX/RangeSep scaling parameters are IGNORED!

Your calculation utilizes LibXC
 by S Lehtola, C Steigemann, MJT Oliveira & MAL Marques
Please cite in your paper:
 S Lehtola, C Steigemann, MJT Oliveira & MAL Marques, SoftwareX, 7, (2018), 1.
   


WARNING: your system is open-shell and RHF/RKS was chosen
  ===> : WILL SWITCH to UHF/UKS

INFO   : Checking CIS options ...

WARNING: CIS/ROCIS methods need fully converged wavefunctions
  ===> : Setting SCFConvForced true
         You can overwrite this default with %scf ConvForced false 


================================================================================
                                       INPUT FILE
================================================================================
NAME = orca.inp
|  1> ! Engrad def2-TZVPPD wB97M-D3BJ 
|  2> %pal nprocs 8 end%pal nprocs 64 end 
|  3> %tddft 
|  4>  Iroot 1 Nroots 3 
|  5> sf true 
|  6> end 
|  7> *xyz 0 3 
|  8> O   1.2212481 0.88278818 0.33870391
|  9> C   0.16334523 -0.03615694 0.53031867
| 10> C   -0.23535102 -0.70487585 -0.70213642
| 11> H   -0.60101351 0.59417089 1.12941488
| 12> H   0.44037697 -0.88712982 1.17003644
| 13> H   -1.13821167 -0.61694344 -1.17710759
| 14> H   0.49020625 -1.3337543 -1.27076591
| 15> *
| 16> 
| 17>                          ****END OF INPUT****
================================================================================

                     *******************************
                     * Energy+Gradient Calculation *
                     *******************************

---------------------------------
CARTESIAN COORDINATES (ANGSTROEM)
---------------------------------
  O      1.221248    0.882788    0.338704
  C      0.163345   -0.036157    0.530319
  C     -0.235351   -0.704876   -0.702136
  H     -0.601014    0.594171    1.129415
  H      0.440377   -0.887130    1.170036
  H     -1.138212   -0.616943   -1.177108
  H      0.490206   -1.333754   -1.270766

----------------------------
CARTESIAN COORDINATES (A.U.)
----------------------------
  NO LB      ZA    FRAG     MASS         X           Y           Z
   0 O     8.0000    0    15.999    2.307824    1.668228    0.640058
   1 C     6.0000    0    12.011    0.308678   -0.068327    1.002157
   2 C     6.0000    0    12.011   -0.444749   -1.332022   -1.326846
   3 H     1.0000    0     1.008   -1.135751    1.122820    2.134285
   4 H     1.0000    0     1.008    0.832192   -1.676432    2.211048
   5 H     1.0000    0     1.008   -2.150908   -1.165854   -2.224411
   6 H     1.0000    0     1.008    0.926356   -2.520430   -2.401400

--------------------------------
INTERNAL COORDINATES (ANGSTROEM)
--------------------------------
 O      0   0   0     0.000000000000     0.00000000     0.00000000
 C      1   0   0     1.414331938470     0.00000000     0.00000000
 C      2   1   0     1.457768578761   112.83538913     0.00000000
 H      2   1   3     1.157788290459   102.13315814   229.24468593
 H      2   1   3     1.100063749388   113.14341754   115.00344992
 H      3   2   1     1.023956578366   126.43597807   245.25225139
 H      3   2   1     1.115912610298   120.76369537    60.68727295

---------------------------
INTERNAL COORDINATES (A.U.)
---------------------------
 O      0   0   0     0.000000000000     0.00000000     0.00000000
 C      1   0   0     2.672700026166     0.00000000     0.00000000
 C      2   1   0     2.754783380494   112.83538913     0.00000000
 H      2   1   3     2.187902790028   102.13315814   229.24468593
 H      2   1   3     2.078819216197   113.14341754   115.00344992
 H      3   2   1     1.934997506138   126.43597807   245.25225139
 H      3   2   1     2.108769222852   120.76369537    60.68727295

---------------------
BASIS SET INFORMATION
---------------------
There are 3 groups of distinct atoms

 Group   1 Type O   : 12s7p3d1f contracted to 6s4p3d1f pattern {621111/4111/111/1}
 Group   2 Type C   : 12s6p3d1f contracted to 6s3p3d1f pattern {621111/411/111/1}
 Group   3 Type H   : 5s3p1d contracted to 3s3p1d pattern {311/111/1}

Atom   0O    basis set group =>   1
Atom   1C    basis set group =>   2
Atom   2C    basis set group =>   2
Atom   3H    basis set group =>   3
Atom   4H    basis set group =>   3
Atom   5H    basis set group =>   3
Atom   6H    basis set group =>   3
---------------------------------
AUXILIARY/J BASIS SET INFORMATION
---------------------------------
There are 3 groups of distinct atoms

 Group   1 Type O   : 12s5p4d2f1g contracted to 6s4p3d1f1g pattern {711111/2111/211/2/1}
 Group   2 Type C   : 12s5p4d2f1g contracted to 6s4p3d1f1g pattern {711111/2111/211/2/1}
 Group   3 Type H   : 5s2p1d contracted to 3s1p1d pattern {311/2/1}

Atom   0O    basis set group =>   1
Atom   1C    basis set group =>   2
Atom   2C    basis set group =>   2
Atom   3H    basis set group =>   3
Atom   4H    basis set group =>   3
Atom   5H    basis set group =>   3
Atom   6H    basis set group =>   3
[1741608710.931688] [ohm:3252953:0]        ib_iface.c:1059 UCX  ERROR ibv_create_cq(cqe=256) failed: Connection timed out
[1741608710.931803] [ohm:3252954:0]        ib_iface.c:1059 UCX  ERROR ibv_create_cq(cqe=256) failed: Connection timed out
[1741608710.939450] [ohm:3253006:0]        ib_iface.c:1059 UCX  ERROR ibv_create_cq(cqe=256) failed: Connection timed out
[1741608710.946345] [ohm:3252956:0]        ib_iface.c:1059 UCX  ERROR ibv_create_cq(cqe=256) failed: Connection timed out
[1741608710.949100] [ohm:3252960:0]        ib_iface.c:1059 UCX  ERROR ibv_create_cq(cqe=256) failed: Connection timed out
[1741608710.949985] [ohm:3252955:0]        ib_iface.c:1059 UCX  ERROR ibv_create_cq(cqe=256) failed: Connection timed out
[1741608710.950602] [ohm:3252966:0]        ib_iface.c:1059 UCX  ERROR ibv_create_cq(cqe=256) failed: Connection timed out
[1741608710.955028] [ohm:3252957:0]        ib_iface.c:1059 UCX  ERROR ibv_create_cq(cqe=256) failed: Connection timed out
[1741608710.958153] [ohm:3252952:0]        ib_iface.c:1059 UCX  ERROR ibv_create_cq(cqe=256) failed: Connection timed out
[1741608710.971017] [ohm:3253010:0]        ib_iface.c:1059 UCX  ERROR ibv_create_cq(cqe=256) failed: Connection timed out
[1741608710.971249] [ohm:3252999:0]        ib_iface.c:1059 UCX  ERROR ibv_create_cq(cqe=256) failed: Connection timed out
[1741608710.974200] [ohm:3253004:0]        ib_iface.c:1059 UCX  ERROR ibv_create_cq(cqe=256) failed: Connection timed out
[1741608710.995240] [ohm:3252961:0]        ib_iface.c:1059 UCX  ERROR ibv_create_cq(cqe=256) failed: Connection timed out
[1741608711.006409] [ohm:3253002:0]        ib_iface.c:1059 UCX  ERROR ibv_create_cq(cqe=256) failed: Connection timed out
[1741608711.006640] [ohm:3253009:0]        ib_iface.c:1059 UCX  ERROR ibv_create_cq(cqe=256) failed: Connection timed out
[1741608711.008162] [ohm:3253019:0]        ib_iface.c:1059 UCX  ERROR ibv_create_cq(cqe=256) failed: Connection timed out
[1741608711.012107] [ohm:3252965:0]        ib_iface.c:1059 UCX  ERROR ibv_create_cq(cqe=256) failed: Connection timed out
[1741608711.032732] [ohm:3253003:0]        ib_iface.c:1059 UCX  ERROR ibv_create_cq(cqe=256) failed: Connection timed out
[1741608711.069935] [ohm:3252958:0]        ib_iface.c:1059 UCX  ERROR ibv_create_cq(cqe=256) failed: Connection timed out
[1741608711.071997] [ohm:3253040:0]        ib_iface.c:1059 UCX  ERROR ibv_create_cq(cqe=256) failed: Connection timed out
[1741608711.073699] [ohm:3252998:0]        ib_iface.c:1059 UCX  ERROR ibv_create_cq(cqe=256) failed: Connection timed out
[1741608711.074940] [ohm:3253013:0]        ib_iface.c:1059 UCX  ERROR ibv_create_cq(cqe=256) failed: Connection timed out
[1741608711.082094] [ohm:3253008:0]        ib_iface.c:1059 UCX  ERROR ibv_create_cq(cqe=256) failed: Connection timed out
[1741608711.100230] [ohm:3253033:0]        ib_iface.c:1059 UCX  ERROR ibv_create_cq(cqe=256) failed: Connection timed out
[1741608711.101413] [ohm:3253073:0]        ib_iface.c:1059 UCX  ERROR ibv_create_cq(cqe=256) failed: Connection timed out
[1741608711.102790] [ohm:3252959:0]        ib_iface.c:1059 UCX  ERROR ibv_create_cq(cqe=256) failed: Connection timed out
[1741608711.103907] [ohm:3252962:0]        ib_iface.c:1059 UCX  ERROR ibv_create_cq(cqe=256) failed: Connection timed out
[1741608711.106560] [ohm:3253005:0]        ib_iface.c:1059 UCX  ERROR ibv_create_cq(cqe=256) failed: Connection timed out
[1741608711.109911] [ohm:3253001:0]        ib_iface.c:1059 UCX  ERROR ibv_create_cq(cqe=256) failed: Connection timed out
[1741608711.113118] [ohm:3252997:0]        ib_iface.c:1059 UCX  ERROR ibv_create_cq(cqe=256) failed: Connection timed out
[1741608711.116855] [ohm:3252963:0]        ib_iface.c:1059 UCX  ERROR ibv_create_cq(cqe=256) failed: Connection timed out
[1741608711.121409] [ohm:3252964:0]        ib_iface.c:1059 UCX  ERROR ibv_create_cq(cqe=256) failed: Connection timed out
[1741608711.128753] [ohm:3252996:0]        ib_iface.c:1059 UCX  ERROR ibv_create_cq(cqe=256) failed: Connection timed out
[1741608711.144378] [ohm:3253068:0]        ib_iface.c:1059 UCX  ERROR ibv_create_cq(cqe=256) failed: Connection timed out
[1741608711.150837] [ohm:3253090:0]        ib_iface.c:1059 UCX  ERROR ibv_create_cq(cqe=256) failed: Connection timed out
[1741608711.151556] [ohm:3253011:0]        ib_iface.c:1059 UCX  ERROR ibv_create_cq(cqe=256) failed: Connection timed out
[1741608711.152202] [ohm:3253030:0]        ib_iface.c:1059 UCX  ERROR ibv_create_cq(cqe=256) failed: Connection timed out
[1741608711.155723] [ohm:3253012:0]        ib_iface.c:1059 UCX  ERROR ibv_create_cq(cqe=256) failed: Connection timed out
[1741608711.160039] [ohm:3253038:0]        ib_iface.c:1059 UCX  ERROR ibv_create_cq(cqe=256) failed: Connection timed out
[1741608711.166146] [ohm:3253018:0]        ib_iface.c:1059 UCX  ERROR ibv_create_cq(cqe=256) failed: Connection timed out
[1741608711.169261] [ohm:3253060:0]        ib_iface.c:1059 UCX  ERROR ibv_create_cq(cqe=256) failed: Connection timed out
[1741608711.173095] [ohm:3253014:0]        ib_iface.c:1059 UCX  ERROR ibv_create_cq(cqe=256) failed: Connection timed out
[1741608711.180206] [ohm:3253084:0]        ib_iface.c:1059 UCX  ERROR ibv_create_cq(cqe=256) failed: Connection timed out
[1741608711.187634] [ohm:3253067:0]        ib_iface.c:1059 UCX  ERROR ibv_create_cq(cqe=256) failed: Connection timed out
[1741608711.189627] [ohm:3253016:0]        ib_iface.c:1059 UCX  ERROR ibv_create_cq(cqe=256) failed: Connection timed out
[1741608711.192448] [ohm:3253077:0]        ib_iface.c:1059 UCX  ERROR ibv_create_cq(cqe=256) failed: Connection timed out
[1741608711.194810] [ohm:3253087:0]        ib_iface.c:1059 UCX  ERROR ibv_create_cq(cqe=256) failed: Connection timed out
[1741608711.197651] [ohm:3253020:0]        ib_iface.c:1059 UCX  ERROR ibv_create_cq(cqe=256) failed: Connection timed out
[1741608711.200898] [ohm:3253075:0]        ib_iface.c:1059 UCX  ERROR ibv_create_cq(cqe=256) failed: Connection timed out
[1741608711.200939] [ohm:3253043:0]        ib_iface.c:1059 UCX  ERROR ibv_create_cq(cqe=256) failed: Connection timed out
[1741608711.207131] [ohm:3253093:0]        ib_iface.c:1059 UCX  ERROR ibv_create_cq(cqe=256) failed: Connection timed out
[1741608711.209064] [ohm:3253059:0]        ib_iface.c:1059 UCX  ERROR ibv_create_cq(cqe=256) failed: Connection timed out
[1741608711.211195] [ohm:3253022:0]        ib_iface.c:1059 UCX  ERROR ibv_create_cq(cqe=256) failed: Connection timed out
[1741608711.212771] [ohm:3253027:0]        ib_iface.c:1059 UCX  ERROR ibv_create_cq(cqe=256) failed: Connection timed out
[1741608711.213084] [ohm:3253017:0]        ib_iface.c:1059 UCX  ERROR ibv_create_cq(cqe=256) failed: Connection timed out
[1741608711.217007] [ohm:3253050:0]        ib_iface.c:1059 UCX  ERROR ibv_create_cq(cqe=256) failed: Connection timed out
[1741608711.217560] [ohm:3253098:0]        ib_iface.c:1059 UCX  ERROR ibv_create_cq(cqe=256) failed: Connection timed out
[1741608711.219611] [ohm:3253054:0]        ib_iface.c:1059 UCX  ERROR ibv_create_cq(cqe=256) failed: Connection timed out
[1741608711.219836] [ohm:3253082:0]        ib_iface.c:1059 UCX  ERROR ibv_create_cq(cqe=256) failed: Connection timed out
[1741608711.220176] [ohm:3253015:0]        ib_iface.c:1059 UCX  ERROR ibv_create_cq(cqe=256) failed: Connection timed out
[1741608711.220460] [ohm:3253021:0]        ib_iface.c:1059 UCX  ERROR ibv_create_cq(cqe=256) failed: Connection timed out
[1741608711.222425] [ohm:3253007:0]        ib_iface.c:1059 UCX  ERROR ibv_create_cq(cqe=256) failed: Connection timed out
[1741608711.223722] [ohm:3253023:0]        ib_iface.c:1059 UCX  ERROR ibv_create_cq(cqe=256) failed: Connection timed out
[1741608711.223917] [ohm:3253048:0]        ib_iface.c:1059 UCX  ERROR ibv_create_cq(cqe=256) failed: Connection timed out


           ************************************************************
           *        Program running with 64 parallel MPI-processes    *
           *              working on a common directory               *
           ************************************************************
------------------------------------------------------------------------------
                             ORCA STARTUP CALCULATIONS
                           -- RI-GTO INTEGRALS CHOSEN --
------------------------------------------------------------------------------
------------------------------------------------------------------------------
                   ___                                                        
                  /   \      - P O W E R E D   B Y -                         
                 /     \                                                     
                 |  |  |   _    _      __       _____    __    __             
                 |  |  |  | |  | |    /  \     |  _  \  |  |  /  |          
                  \  \/   | |  | |   /    \    | | | |  |  | /  /          
                 / \  \   | |__| |  /  /\  \   | |_| |  |  |/  /          
                |  |  |   |  __  | /  /__\  \  |    /   |      \           
                |  |  |   | |  | | |   __   |  |    \   |  |\   \          
                \     /   | |  | | |  |  |  |  | |\  \  |  | \   \       
                 \___/    |_|  |_| |__|  |__|  |_| \__\ |__|  \__/        
                                                                              
                      - O R C A' S   B I G   F R I E N D -                    
                                      &                                       
                       - I N T E G R A L  F E E D E R -                       
                                                                              
 v1 FN, 2020, v2 2021, v3 2022-2024                                           
------------------------------------------------------------------------------


----------------------
SHARK INTEGRAL PACKAGE
----------------------

Number of atoms                             ...      7
Number of basis functions                   ...    182
Number of shells                            ...     68
Maximum angular momentum                    ...      3
Integral batch strategy                     ... SHARK/LIBINT Hybrid
RI-J (if used) integral strategy            ... SPLIT-RIJ (Revised 2003 algorithm where possible)
Printlevel                                  ...      1
Contraction scheme used                     ... SEGMENTED contraction
Prescreening option                         ... SCHWARTZ
   Thresh                                   ... 2.500e-11
   Tcut                                     ... 2.500e-12
   Tpresel                                  ... 2.500e-12 
Coulomb Range Separation                    ... NOT USED
Exchange Range Separation                   ... Long Range
   Mu parameter                             ... 3.000e-01
   Scaling (regular/separated)              ... 1.500e-01 8.500e-01
Multipole approximations                    ... NOT USED
Finite Nucleus Model                        ... NOT USED
CABS basis                                  ... NOT available
Auxiliary Coulomb fitting basis             ... AVAILABLE
   # of basis functions in Aux-J            ...    191
   # of shells in Aux-J                     ...     65
   Maximum angular momentum in Aux-J        ...      4
Auxiliary J/K fitting basis                 ... NOT available
Auxiliary Correlation fitting basis         ... NOT available
Auxiliary 'external' fitting basis          ... NOT available

Checking pre-screening integrals            ... done (  0.0 sec) Dimension = 68
Check shell pair data                       ... done (  0.0 sec)
Shell pair information
Shell pair cut-off parameter TPreSel        ...   2.5e-12
Total number of shell pairs                 ...      2346
Shell pairs after pre-screening             ...      2326
Total number of primitive shell pairs       ...      5434
Primitive shell pairs kept                  ...      4805
          la=0 lb=0:    454 shell pairs
          la=1 lb=0:    655 shell pairs
          la=1 lb=1:    253 shell pairs
          la=2 lb=0:    387 shell pairs
          la=2 lb=1:    285 shell pairs
          la=2 lb=2:     91 shell pairs
          la=3 lb=0:     90 shell pairs
          la=3 lb=1:     66 shell pairs
          la=3 lb=2:     39 shell pairs
          la=3 lb=3:      6 shell pairs

Calculating one electron integrals          ... done (  0.0 sec)
Calculating RI/J V-Matrix + Cholesky decomp.... done (  0.0 sec)
Calculating Nuclear repulsion               ... done (  0.0 sec) ENN=     67.337731207091 Eh

Diagonalization of the overlap matrix:
Smallest eigenvalue                        ... 1.820e-05
Time for diagonalization                   ...    0.004 sec
Threshold for overlap eigenvalues          ... 1.000e-07
Number of eigenvalues below threshold      ... 0
Time for construction of square roots      ...    0.004 sec
Total time needed                          ...    0.009 sec

-------------------
DFT GRID GENERATION
-------------------

General Integration Accuracy     IntAcc      ... 4.388
Radial Grid Type                 RadialGrid  ... OptM3 with GC (2021)
Angular Grid (max. ang.)         AngularGrid ... 4 (Lebedev-302)
Angular grid pruning method      GridPruning ... 4 (adaptive)
Weight generation scheme         WeightScheme... mBecke (2022)
Basis function cutoff            BFCut       ... 1.0000e-11
Integration weight cutoff        WCut        ... 1.0000e-14
Partially contracted basis set               ... off
Rotationally invariant grid construction     ... off
Angular grids for H and He will be reduced by one unit
Diffuse basis detected: some atoms will have their outermost
                        angular grid increased by 1.

Total number of grid points                  ...    33161
Total number of batches                      ...      523
Average number of points per batch           ...       63
Average number of grid points per atom       ...     4737

--------------------
COSX GRID GENERATION
--------------------

GRIDX 1
-------
General Integration Accuracy     IntAcc      ... 3.816
Radial Grid Type                 RadialGrid  ... OptM3 with GC (2021)
Angular Grid (max. ang.)         AngularGrid ... 1 (Lebedev-50)
Angular grid pruning method      GridPruning ... 4 (adaptive)
Weight generation scheme         WeightScheme... mBecke (2022)
Basis function cutoff            BFCut       ... 1.0000e-11
Integration weight cutoff        WCut        ... 1.0000e-14
Partially contracted basis set               ... on
Rotationally invariant grid construction     ... off
Angular grids for H and He will be reduced by one unit
Diffuse basis detected: some atoms will have their outermost
                        angular grid increased by 1.

Total number of grid points                  ...     4179
Total number of batches                      ...       36
Average number of points per batch           ...      116
Average number of grid points per atom       ...      597
UseSFitting                                  ... on

GRIDX 2
-------
General Integration Accuracy     IntAcc      ... 4.020
Radial Grid Type                 RadialGrid  ... OptM3 with GC (2021)
Angular Grid (max. ang.)         AngularGrid ... 2 (Lebedev-110)
Angular grid pruning method      GridPruning ... 4 (adaptive)
Weight generation scheme         WeightScheme... mBecke (2022)
Basis function cutoff            BFCut       ... 1.0000e-11
Integration weight cutoff        WCut        ... 1.0000e-14
Partially contracted basis set               ... on
Rotationally invariant grid construction     ... off
Angular grids for H and He will be reduced by one unit
Diffuse basis detected: some atoms will have their outermost
                        angular grid increased by 1.

Total number of grid points                  ...    10282
Total number of batches                      ...       84
Average number of points per batch           ...      122
Average number of grid points per atom       ...     1469
UseSFitting                                  ... on

GRIDX 3
-------
General Integration Accuracy     IntAcc      ... 4.338
Radial Grid Type                 RadialGrid  ... OptM3 with GC (2021)
Angular Grid (max. ang.)         AngularGrid ... 3 (Lebedev-194)
Angular grid pruning method      GridPruning ... 4 (adaptive)
Weight generation scheme         WeightScheme... mBecke (2022)
Basis function cutoff            BFCut       ... 1.0000e-11
Integration weight cutoff        WCut        ... 1.0000e-14
Partially contracted basis set               ... on
Rotationally invariant grid construction     ... off
Angular grids for H and He will be reduced by one unit
Diffuse basis detected: some atoms will have their outermost
                        angular grid increased by 1.

Total number of grid points                  ...    23177
Total number of batches                      ...      185
Average number of points per batch           ...      125
Average number of grid points per atom       ...     3311
UseSFitting                                  ... on
Initializing property integral containers    ... done (  0.0 sec)

SHARK setup successfully completed in   0.4 seconds

Maximum memory used throughout the entire STARTUP-calculation: 13.8 MB
[1741608713.289131] [ohm:3253300:0]        ib_iface.c:1059 UCX  ERROR ibv_create_cq(cqe=256) failed: Connection timed out
[1741608713.299242] [ohm:3253299:0]        ib_iface.c:1059 UCX  ERROR ibv_create_cq(cqe=256) failed: Connection timed out
[1741608713.310567] [ohm:3253295:0]        ib_iface.c:1059 UCX  ERROR ibv_create_cq(cqe=256) failed: Connection timed out
[1741608713.312986] [ohm:3253309:0]        ib_iface.c:1059 UCX  ERROR ibv_create_cq(cqe=256) failed: Connection timed out
[1741608713.314910] [ohm:3253301:0]        ib_iface.c:1059 UCX  ERROR ibv_create_cq(cqe=256) failed: Connection timed out
[1741608713.354397] [ohm:3253342:0]        ib_iface.c:1059 UCX  ERROR ibv_create_cq(cqe=256) failed: Connection timed out
[1741608713.364662] [ohm:3253349:0]        ib_iface.c:1059 UCX  ERROR ibv_create_cq(cqe=256) failed: Connection timed out
[1741608713.373249] [ohm:3253297:0]        ib_iface.c:1059 UCX  ERROR ibv_create_cq(cqe=256) failed: Connection timed out
[1741608713.373775] [ohm:3253327:0]        ib_iface.c:1059 UCX  ERROR ibv_create_cq(cqe=256) failed: Connection timed out
[1741608713.378258] [ohm:3253416:0]        ib_iface.c:1059 UCX  ERROR ibv_create_cq(cqe=256) failed: Connection timed out
[1741608713.380089] [ohm:3253303:0]        ib_iface.c:1059 UCX  ERROR ibv_create_cq(cqe=256) failed: Connection timed out
[1741608713.389158] [ohm:3253326:0]        ib_iface.c:1059 UCX  ERROR ibv_create_cq(cqe=256) failed: Connection timed out
[1741608713.397774] [ohm:3253302:0]        ib_iface.c:1059 UCX  ERROR ibv_create_cq(cqe=256) failed: Connection timed out
[1741608713.399886] [ohm:3253444:0]        ib_iface.c:1059 UCX  ERROR ibv_create_cq(cqe=256) failed: Connection timed out
[1741608713.401424] [ohm:3253351:0]        ib_iface.c:1059 UCX  ERROR ibv_create_cq(cqe=256) failed: Connection timed out
[1741608713.404574] [ohm:3253359:0]        ib_iface.c:1059 UCX  ERROR ibv_create_cq(cqe=256) failed: Connection timed out
[1741608713.410577] [ohm:3253305:0]        ib_iface.c:1059 UCX  ERROR ibv_create_cq(cqe=256) failed: Connection timed out
[1741608713.413854] [ohm:3253361:0]        ib_iface.c:1059 UCX  ERROR ibv_create_cq(cqe=256) failed: Connection timed out
[1741608713.420497] [ohm:3253357:0]        ib_iface.c:1059 UCX  ERROR ibv_create_cq(cqe=256) failed: Connection timed out
[1741608713.424466] [ohm:3253356:0]        ib_iface.c:1059 UCX  ERROR ibv_create_cq(cqe=256) failed: Connection timed out
[1741608713.429686] [ohm:3253427:0]        ib_iface.c:1059 UCX  ERROR ibv_create_cq(cqe=256) failed: Connection timed out
[1741608713.430730] [ohm:3253338:0]        ib_iface.c:1059 UCX  ERROR ibv_create_cq(cqe=256) failed: Connection timed out
[1741608713.438402] [ohm:3253328:0]        ib_iface.c:1059 UCX  ERROR ibv_create_cq(cqe=256) failed: Connection timed out
[1741608713.450344] [ohm:3253296:0]        ib_iface.c:1059 UCX  ERROR ibv_create_cq(cqe=256) failed: Connection timed out
[1741608713.469071] [ohm:3253334:0]        ib_iface.c:1059 UCX  ERROR ibv_create_cq(cqe=256) failed: Connection timed out
[1741608713.488852] [ohm:3253306:0]        ib_iface.c:1059 UCX  ERROR ibv_create_cq(cqe=256) failed: Connection timed out
[1741608713.491343] [ohm:3253383:0]        ib_iface.c:1059 UCX  ERROR ibv_create_cq(cqe=256) failed: Connection timed out
[1741608713.493672] [ohm:3253308:0]        ib_iface.c:1059 UCX  ERROR ibv_create_cq(cqe=256) failed: Connection timed out
[1741608713.495423] [ohm:3253298:0]        ib_iface.c:1059 UCX  ERROR ibv_create_cq(cqe=256) failed: Connection timed out
[1741608713.505565] [ohm:3253364:0]        ib_iface.c:1059 UCX  ERROR ibv_create_cq(cqe=256) failed: Connection timed out
[1741608713.538678] [ohm:3253330:0]        ib_iface.c:1059 UCX  ERROR ibv_create_cq(cqe=256) failed: Connection timed out
[1741608713.543472] [ohm:3253346:0]        ib_iface.c:1059 UCX  ERROR ibv_create_cq(cqe=256) failed: Connection timed out
[1741608713.544755] [ohm:3253304:0]        ib_iface.c:1059 UCX  ERROR ibv_create_cq(cqe=256) failed: Connection timed out
[1741608713.547435] [ohm:3253353:0]        ib_iface.c:1059 UCX  ERROR ibv_create_cq(cqe=256) failed: Connection timed out
[1741608713.547429] [ohm:3253352:0]        ib_iface.c:1059 UCX  ERROR ibv_create_cq(cqe=256) failed: Connection timed out
[1741608713.554642] [ohm:3253355:0]        ib_iface.c:1059 UCX  ERROR ibv_create_cq(cqe=256) failed: Connection timed out
[1741608713.558226] [ohm:3253434:0]        ib_iface.c:1059 UCX  ERROR ibv_create_cq(cqe=256) failed: Connection timed out
[1741608713.560660] [ohm:3253385:0]        ib_iface.c:1059 UCX  ERROR ibv_create_cq(cqe=256) failed: Connection timed out
[1741608713.560637] [ohm:3253348:0]        ib_iface.c:1059 UCX  ERROR ibv_create_cq(cqe=256) failed: Connection timed out
[1741608713.570052] [ohm:3253367:0]        ib_iface.c:1059 UCX  ERROR ibv_create_cq(cqe=256) failed: Connection timed out
[1741608713.571195] [ohm:3253405:0]        ib_iface.c:1059 UCX  ERROR ibv_create_cq(cqe=256) failed: Connection timed out
[1741608713.571344] [ohm:3253420:0]        ib_iface.c:1059 UCX  ERROR ibv_create_cq(cqe=256) failed: Connection timed out
[1741608713.574301] [ohm:3253388:0]        ib_iface.c:1059 UCX  ERROR ibv_create_cq(cqe=256) failed: Connection timed out
[1741608713.575589] [ohm:3253429:0]        ib_iface.c:1059 UCX  ERROR ibv_create_cq(cqe=256) failed: Connection timed out
[1741608713.579239] [ohm:3253350:0]        ib_iface.c:1059 UCX  ERROR ibv_create_cq(cqe=256) failed: Connection timed out
[1741608713.585069] [ohm:3253363:0]        ib_iface.c:1059 UCX  ERROR ibv_create_cq(cqe=256) failed: Connection timed out
[1741608713.588087] [ohm:3253365:0]        ib_iface.c:1059 UCX  ERROR ibv_create_cq(cqe=256) failed: Connection timed out
[1741608713.588102] [ohm:3253393:0]        ib_iface.c:1059 UCX  ERROR ibv_create_cq(cqe=256) failed: Connection timed out
[1741608713.592457] [ohm:3253402:0]        ib_iface.c:1059 UCX  ERROR ibv_create_cq(cqe=256) failed: Connection timed out
[1741608713.594235] [ohm:3253360:0]        ib_iface.c:1059 UCX  ERROR ibv_create_cq(cqe=256) failed: Connection timed out
[1741608713.596050] [ohm:3253307:0]        ib_iface.c:1059 UCX  ERROR ibv_create_cq(cqe=256) failed: Connection timed out
[1741608713.599522] [ohm:3253437:0]        ib_iface.c:1059 UCX  ERROR ibv_create_cq(cqe=256) failed: Connection timed out
[1741608713.601368] [ohm:3253354:0]        ib_iface.c:1059 UCX  ERROR ibv_create_cq(cqe=256) failed: Connection timed out
[1741608713.603782] [ohm:3253409:0]        ib_iface.c:1059 UCX  ERROR ibv_create_cq(cqe=256) failed: Connection timed out
[1741608713.604489] [ohm:3253369:0]        ib_iface.c:1059 UCX  ERROR ibv_create_cq(cqe=256) failed: Connection timed out
[1741608713.605858] [ohm:3253424:0]        ib_iface.c:1059 UCX  ERROR ibv_create_cq(cqe=256) failed: Connection timed out
[1741608713.606554] [ohm:3253362:0]        ib_iface.c:1059 UCX  ERROR ibv_create_cq(cqe=256) failed: Connection timed out
[1741608713.607115] [ohm:3253397:0]        ib_iface.c:1059 UCX  ERROR ibv_create_cq(cqe=256) failed: Connection timed out
[1741608713.609521] [ohm:3253413:0]        ib_iface.c:1059 UCX  ERROR ibv_create_cq(cqe=256) failed: Connection timed out
[1741608713.611554] [ohm:3253378:0]        ib_iface.c:1059 UCX  ERROR ibv_create_cq(cqe=256) failed: Connection timed out
[1741608713.612674] [ohm:3253421:0]        ib_iface.c:1059 UCX  ERROR ibv_create_cq(cqe=256) failed: Connection timed out
[1741608713.612772] [ohm:3253399:0]        ib_iface.c:1059 UCX  ERROR ibv_create_cq(cqe=256) failed: Connection timed out
[1741608713.616297] [ohm:3253358:0]        ib_iface.c:1059 UCX  ERROR ibv_create_cq(cqe=256) failed: Connection timed out
[1741608713.618224] [ohm:3253376:0]        ib_iface.c:1059 UCX  ERROR ibv_create_cq(cqe=256) failed: Connection timed out


           ************************************************************
           *        Program running with 64 parallel MPI-processes    *
           *              working on a common directory               *
           ************************************************************
-------------------------------------------------------------------------------
                                 ORCA GUESS
                   Start orbitals & Density for SCF / CASSCF
-------------------------------------------------------------------------------

------------
SCF SETTINGS
------------
Hamiltonian:
 Density Functional     Method          .... DFT(GTOs)
  Functional kind                       .... Exchange-Correlation
  Functional name                       .... wB97M-V exchange-correlation functional
  Functional family                     .... Hybrid MGGA
  Functional refs                              
    [ 0] N. Mardirossian and M. Head-Gordon.,  J. Chem. Phys. 144, 214110 (2016), doi: 10.1063/1.4952647
  Fraction of HF Exchange (short range) .... 0.1500
  Fraction of HF Exchange (long range)  .... 1.0000
  Range separation parameter mu         .... 0.3000
  Functional external parameters        .... 17
    Parameter  0 _cx00      =  8.500000e-01 : u^00 coefficient for exchange
    Parameter  1 _cx01      =  1.007000e+00 : u^01 coefficient for exchange
    Parameter  2 _cx10      =  2.590000e-01 : u^10 coefficient for exchange
    Parameter  3 _css00     =  4.430000e-01 : u^00 coefficient for same-spin correlation
    Parameter  4 _css04     = -1.437000e+00 : u^04 coefficient for same-spin correlation
    Parameter  5 _css10     = -4.535000e+00 : u^10 coefficient for same-spin correlation
    Parameter  6 _css20     = -3.390000e+00 : u^20 coefficient for same-spin correlation
    Parameter  7 _css43     =  4.278000e+00 : u^43 coefficient for same-spin correlation
    Parameter  8 _cos00     =  1.000000e+00 : u^00 coefficient for opposite-spin correlation
    Parameter  9 _cos10     =  1.358000e+00 : u^10 coefficient for opposite-spin correlation
    Parameter 10 _cos20     =  2.924000e+00 : u^20 coefficient for opposite-spin correlation
    Parameter 11 _cos21     = -8.812000e+00 : u^21 coefficient for opposite-spin correlation
    Parameter 12 _cos60     = -1.390000e+00 : u^60 coefficient for opposite-spin correlation
    Parameter 13 _cos61     =  9.142000e+00 : u^61 coefficient for opposite-spin correlation
    Parameter 14 _alpha     =  1.000000e+00 : fraction of HF exchange
    Parameter 15 _beta      = -8.500000e-01 : fraction of short-range exchange
    Parameter 16 _omega     =  3.000000e-01 : range-separation constant
 Long-range corrected/Screened/Range-Separated Hybrid DFT is turned on
   Amount of maximum screened exact exchange              ....  0.850000
   Range separation parameter mu (erf(mu*r12)/r12)        ....  0.300000
 RI-approximation to the Coulomb term is turned on
   Number of AuxJ basis functions       .... 191
   RIJ-COSX (HFX calculated with COS-X)).... on


General Settings:
 Integral files         IntName         .... orca
 Hartree-Fock type      HFTyp           .... UHF
 Total Charge           Charge          ....    0
 Multiplicity           Mult            ....    3
 Number of Electrons    NEL             ....   24
 Basis Dimension        Dim             ....  182
 Nuclear Repulsion      ENuc            ....     67.3377312071 Eh

Convergence Acceleration:
 AO-DIIS                CNVDIIS         .... on
   Start iteration      DIISMaxIt       ....    12
   Startup error        DIISStart       ....  0.200000
   # of expansion vecs  DIISMaxEq       ....     5
   Bias factor          DIISBfac        ....   1.050
   Max. coefficient     DIISMaxC        ....  10.000
 MO-DIIS                CNVKDIIS        .... off
 Trust-Rad. Augm. Hess. CNVTRAH         .... auto
   Auto Start mean grad. ratio tolernc. ....  1.125000
   Auto Start start iteration           ....    50
   Auto Start num. interpolation iter.  ....    10
   Max. Number of Micro iterations      ....    24
   Max. Number of Macro iterations      .... Maxiter - #DIIS iter
   Number of Davidson start vectors     ....     2
   Converg. threshold    (grad. norm)   ....   1.000e-05
   Grad. Scal. Fac. for Micro threshold ....   0.100
   Minimum threshold for Micro iter.    ....   1.000e-02
   NR start threshold (gradient norm)   ....   1.000e-04
   Initial trust radius                 ....   0.400
   Minimum AH scaling param. (alpha)    ....   1.000
   Maximum AH scaling param. (alpha)    .... 1000.000
   Quad. conv. algorithm                .... NR
   White noise on init. David. guess    .... on
   Maximum white noise                  ....   0.010
   Pseudo random numbers                .... off
   Inactive MOs                         .... canonical
   Orbital update algorithm             .... Taylor
   Preconditioner                       .... Diag
   Full preconditioner red. dimension   ....   250
 SOSCF                  CNVSOSCF        .... on
   Start iteration      SOSCFMaxIt      ....   150
   Startup grad/error   SOSCFStart      ....  0.003300
   Hessian update       SOSCFHessUp     .... L-BFGS
 Level Shifting         CNVShift        .... on
   Level shift para.    LevelShift      ....    0.2500
   Turn off err/grad.   ShiftErr        ....    0.0010
 Zerner damping         CNVZerner       .... off
 Static damping         CNVDamp         .... on
   Fraction old density DampFac         ....    0.7000
   Max. Damping (<1)    DampMax         ....    0.9800
   Min. Damping (>=0)   DampMin         ....    0.0000
   Turn off err/grad.   DampErr         ....    0.1000

SCF Procedure:
 Maximum # iterations   MaxIter         ....   125
 SCF integral mode      SCFMode         .... Direct
   Integral package                     .... SHARK and LIBINT hybrid scheme
 Reset frequency        DirectResetFreq ....    20
 Integral Threshold     Thresh          ....  2.500e-11 Eh
 Primitive CutOff       TCut            ....  2.500e-12 Eh

Convergence Tolerance:
 Convergence Check Mode ConvCheckMode   .... Total+1el-Energy
 Convergence forced     ConvForced      .... 1
 Energy Change          TolE            ....  1.000e-08 Eh
 1-El. energy change                    ....  1.000e-05 Eh
 Orbital Gradient       TolG            ....  1.000e-05
 Orbital Rotation angle TolX            ....  1.000e-05
 DIIS Error             TolErr          ....  5.000e-07

------------------------------
INITIAL GUESS: MODEL POTENTIAL
------------------------------
Loading Hartree-Fock densities                     ... done
Calculating cut-offs                               ... done
Initializing the effective Hamiltonian             ... done
Setting up the integral package (SHARK)            ... done
Starting the Coulomb interaction                   ... done (   0.0 sec)
Making the grid                                    ... done (   0.0 sec)
Mapping shells                                     ... done
Starting the XC term evaluation                    ... done (   0.0 sec)
  promolecular density results
     # of electrons  =     23.998666770
     EX              =    -19.450068705
     EC              =     -0.763505182
     EX+EC           =    -20.213573888
Transforming the Hamiltonian                       ... done (   0.0 sec)
Diagonalizing the Hamiltonian                      ... done (   0.0 sec)
Back transforming the eigenvectors                 ... done (   0.0 sec)
Now organizing SCF variables                       ... done
                      ------------------
                      INITIAL GUESS DONE (   0.1 sec)
                      ------------------
             **** ENERGY FILE WAS UPDATED (orca.en.tmp) ****
Finished Guess after   1.7 sec
Maximum memory used throughout the entire GUESS-calculation: 9.5 MB
[1741608715.377721] [ohm:3253635:0]        ib_iface.c:1059 UCX  ERROR ibv_create_cq(cqe=256) failed: Connection timed out
[1741608715.387268] [ohm:3253638:0]        ib_iface.c:1059 UCX  ERROR ibv_create_cq(cqe=256) failed: Connection timed out
[1741608715.398968] [ohm:3253636:0]        ib_iface.c:1059 UCX  ERROR ibv_create_cq(cqe=256) failed: Connection timed out
[1741608715.412097] [ohm:3253644:0]        ib_iface.c:1059 UCX  ERROR ibv_create_cq(cqe=256) failed: Connection timed out
[1741608715.422289] [ohm:3253637:0]        ib_iface.c:1059 UCX  ERROR ibv_create_cq(cqe=256) failed: Connection timed out
[1741608715.422709] [ohm:3253667:0]        ib_iface.c:1059 UCX  ERROR ibv_create_cq(cqe=256) failed: Connection timed out
[1741608715.426457] [ohm:3253642:0]        ib_iface.c:1059 UCX  ERROR ibv_create_cq(cqe=256) failed: Connection timed out
[1741608715.441809] [ohm:3253640:0]        ib_iface.c:1059 UCX  ERROR ibv_create_cq(cqe=256) failed: Connection timed out
[1741608715.442878] [ohm:3253650:0]        ib_iface.c:1059 UCX  ERROR ibv_create_cq(cqe=256) failed: Connection timed out
[1741608715.447119] [ohm:3253647:0]        ib_iface.c:1059 UCX  ERROR ibv_create_cq(cqe=256) failed: Connection timed out
[1741608715.459696] [ohm:3253669:0]        ib_iface.c:1059 UCX  ERROR ibv_create_cq(cqe=256) failed: Connection timed out
[1741608715.469636] [ohm:3253639:0]        ib_iface.c:1059 UCX  ERROR ibv_create_cq(cqe=256) failed: Connection timed out
[1741608715.473271] [ohm:3253708:0]        ib_iface.c:1059 UCX  ERROR ibv_create_cq(cqe=256) failed: Connection timed out
[1741608715.478357] [ohm:3253648:0]        ib_iface.c:1059 UCX  ERROR ibv_create_cq(cqe=256) failed: Connection timed out
[1741608715.485650] [ohm:3253651:0]        ib_iface.c:1059 UCX  ERROR ibv_create_cq(cqe=256) failed: Connection timed out
[1741608715.490894] [ohm:3253668:0]        ib_iface.c:1059 UCX  ERROR ibv_create_cq(cqe=256) failed: Connection timed out
[1741608715.525776] [ohm:3253697:0]        ib_iface.c:1059 UCX  ERROR ibv_create_cq(cqe=256) failed: Connection timed out
[1741608715.541696] [ohm:3253705:0]        ib_iface.c:1059 UCX  ERROR ibv_create_cq(cqe=256) failed: Connection timed out
[1741608715.547456] [ohm:3253721:0]        ib_iface.c:1059 UCX  ERROR ibv_create_cq(cqe=256) failed: Connection timed out
[1741608715.560311] [ohm:3253686:0]        ib_iface.c:1059 UCX  ERROR ibv_create_cq(cqe=256) failed: Connection timed out
[1741608715.563237] [ohm:3253741:0]        ib_iface.c:1059 UCX  ERROR ibv_create_cq(cqe=256) failed: Connection timed out
[1741608715.565311] [ohm:3253693:0]        ib_iface.c:1059 UCX  ERROR ibv_create_cq(cqe=256) failed: Connection timed out
[1741608715.574368] [ohm:3253646:0]        ib_iface.c:1059 UCX  ERROR ibv_create_cq(cqe=256) failed: Connection timed out
[1741608715.579165] [ohm:3253679:0]        ib_iface.c:1059 UCX  ERROR ibv_create_cq(cqe=256) failed: Connection timed out
[1741608715.581952] [ohm:3253645:0]        ib_iface.c:1059 UCX  ERROR ibv_create_cq(cqe=256) failed: Connection timed out
[1741608715.582254] [ohm:3253714:0]        ib_iface.c:1059 UCX  ERROR ibv_create_cq(cqe=256) failed: Connection timed out
[1741608715.592749] [ohm:3253641:0]        ib_iface.c:1059 UCX  ERROR ibv_create_cq(cqe=256) failed: Connection timed out
[1741608715.592816] [ohm:3253698:0]        ib_iface.c:1059 UCX  ERROR ibv_create_cq(cqe=256) failed: Connection timed out
[1741608715.604207] [ohm:3253701:0]        ib_iface.c:1059 UCX  ERROR ibv_create_cq(cqe=256) failed: Connection timed out
[1741608715.621196] [ohm:3253699:0]        ib_iface.c:1059 UCX  ERROR ibv_create_cq(cqe=256) failed: Connection timed out
[1741608715.626666] [ohm:3253691:0]        ib_iface.c:1059 UCX  ERROR ibv_create_cq(cqe=256) failed: Connection timed out
[1741608715.628845] [ohm:3253688:0]        ib_iface.c:1059 UCX  ERROR ibv_create_cq(cqe=256) failed: Connection timed out
[1741608715.635894] [ohm:3253643:0]        ib_iface.c:1059 UCX  ERROR ibv_create_cq(cqe=256) failed: Connection timed out
[1741608715.639378] [ohm:3253677:0]        ib_iface.c:1059 UCX  ERROR ibv_create_cq(cqe=256) failed: Connection timed out
[1741608715.640050] [ohm:3253716:0]        ib_iface.c:1059 UCX  ERROR ibv_create_cq(cqe=256) failed: Connection timed out
[1741608715.645656] [ohm:3253767:0]        ib_iface.c:1059 UCX  ERROR ibv_create_cq(cqe=256) failed: Connection timed out
[1741608715.655404] [ohm:3253764:0]        ib_iface.c:1059 UCX  ERROR ibv_create_cq(cqe=256) failed: Connection timed out
[1741608715.658456] [ohm:3253666:0]        ib_iface.c:1059 UCX  ERROR ibv_create_cq(cqe=256) failed: Connection timed out
[1741608715.661241] [ohm:3253774:0]        ib_iface.c:1059 UCX  ERROR ibv_create_cq(cqe=256) failed: Connection timed out
[1741608715.665634] [ohm:3253747:0]        ib_iface.c:1059 UCX  ERROR ibv_create_cq(cqe=256) failed: Connection timed out
[1741608715.669648] [ohm:3253781:0]        ib_iface.c:1059 UCX  ERROR ibv_create_cq(cqe=256) failed: Connection timed out
[1741608715.672114] [ohm:3253758:0]        ib_iface.c:1059 UCX  ERROR ibv_create_cq(cqe=256) failed: Connection timed out
[1741608715.672406] [ohm:3253777:0]        ib_iface.c:1059 UCX  ERROR ibv_create_cq(cqe=256) failed: Connection timed out
[1741608715.683893] [ohm:3253700:0]        ib_iface.c:1059 UCX  ERROR ibv_create_cq(cqe=256) failed: Connection timed out
[1741608715.690286] [ohm:3253709:0]        ib_iface.c:1059 UCX  ERROR ibv_create_cq(cqe=256) failed: Connection timed out
[1741608715.691134] [ohm:3253755:0]        ib_iface.c:1059 UCX  ERROR ibv_create_cq(cqe=256) failed: Connection timed out
[1741608715.694214] [ohm:3253725:0]        ib_iface.c:1059 UCX  ERROR ibv_create_cq(cqe=256) failed: Connection timed out
[1741608715.694316] [ohm:3253696:0]        ib_iface.c:1059 UCX  ERROR ibv_create_cq(cqe=256) failed: Connection timed out
[1741608715.694711] [ohm:3253665:0]        ib_iface.c:1059 UCX  ERROR ibv_create_cq(cqe=256) failed: Connection timed out
[1741608715.695456] [ohm:3253753:0]        ib_iface.c:1059 UCX  ERROR ibv_create_cq(cqe=256) failed: Connection timed out
[1741608715.695521] [ohm:3253728:0]        ib_iface.c:1059 UCX  ERROR ibv_create_cq(cqe=256) failed: Connection timed out
[1741608715.701387] [ohm:3253779:0]        ib_iface.c:1059 UCX  ERROR ibv_create_cq(cqe=256) failed: Connection timed out
[1741608715.703605] [ohm:3253702:0]        ib_iface.c:1059 UCX  ERROR ibv_create_cq(cqe=256) failed: Connection timed out
[1741608715.703694] [ohm:3253762:0]        ib_iface.c:1059 UCX  ERROR ibv_create_cq(cqe=256) failed: Connection timed out
[1741608715.707390] [ohm:3253723:0]        ib_iface.c:1059 UCX  ERROR ibv_create_cq(cqe=256) failed: Connection timed out
[1741608715.707764] [ohm:3253730:0]        ib_iface.c:1059 UCX  ERROR ibv_create_cq(cqe=256) failed: Connection timed out
[1741608715.707853] [ohm:3253703:0]        ib_iface.c:1059 UCX  ERROR ibv_create_cq(cqe=256) failed: Connection timed out
[1741608715.708654] [ohm:3253704:0]        ib_iface.c:1059 UCX  ERROR ibv_create_cq(cqe=256) failed: Connection timed out
[1741608715.709367] [ohm:3253733:0]        ib_iface.c:1059 UCX  ERROR ibv_create_cq(cqe=256) failed: Connection timed out
[1741608715.711463] [ohm:3253673:0]        ib_iface.c:1059 UCX  ERROR ibv_create_cq(cqe=256) failed: Connection timed out
[1741608715.711722] [ohm:3253737:0]        ib_iface.c:1059 UCX  ERROR ibv_create_cq(cqe=256) failed: Connection timed out
[1741608715.711760] [ohm:3253770:0]        ib_iface.c:1059 UCX  ERROR ibv_create_cq(cqe=256) failed: Connection timed out
[1741608715.712066] [ohm:3253695:0]        ib_iface.c:1059 UCX  ERROR ibv_create_cq(cqe=256) failed: Connection timed out
[1741608715.722221] [ohm:3253749:0]        ib_iface.c:1059 UCX  ERROR ibv_create_cq(cqe=256) failed: Connection timed out


           ************************************************************
           *        Program running with 64 parallel MPI-processes    *
           *              working on a common directory               *
           ************************************************************

-------------------------------------------------------------------------------------------
                                      ORCA LEAN-SCF
                              memory conserving SCF solver
-------------------------------------------------------------------------------------------

----------------------------------------D-I-I-S--------------------------------------------
Iteration    Energy (Eh)           Delta-E    RMSDP     MaxDP     DIISErr   Damp  Time(sec)
-------------------------------------------------------------------------------------------
               ***  Starting incremental Fock matrix formation  ***
    1    -153.6984681158340891     0.00e+00  8.44e-04  2.32e-02  7.74e-02  0.700   0.3
    2    -153.7250610923534850    -2.66e-02  7.35e-04  1.91e-02  4.25e-02  0.700   0.3
                               ***Turning on AO-DIIS***
    3    -153.7399736696026480    -1.49e-02  5.89e-04  1.93e-02  2.45e-02  0.700   0.3
    4    -153.7493900711899641    -9.42e-03  1.49e-03  5.21e-02  1.93e-02  0.000   0.3
    5    -153.7721780453096017    -2.28e-02  1.79e-04  5.59e-03  6.36e-03  0.000   0.3
    6    -153.7729445423150310    -7.66e-04  1.17e-04  3.30e-03  3.68e-03  0.000   0.3
                              *** Initializing SOSCF ***
---------------------------------------S-O-S-C-F--------------------------------------
Iteration    Energy (Eh)           Delta-E    RMSDP     MaxDP     MaxGrad    Time(sec)
--------------------------------------------------------------------------------------
    7    -153.7733287022036848    -3.84e-04  6.58e-05  1.61e-03  3.21e-03     0.3
               *** Restarting incremental Fock matrix formation ***
    8    -153.7734961836044363    -1.67e-04  3.33e-05  8.27e-04  2.99e-03     0.3
    9    -153.7735447753075277    -4.86e-05  4.65e-05  1.03e-03  1.68e-03     0.3
   10    -153.7735714163347325    -2.66e-05  1.03e-05  3.14e-04  3.56e-04     0.3
   11    -153.7735725941247438    -1.18e-06  5.99e-06  1.44e-04  2.19e-04     0.3
   12    -153.7735735992602031    -1.01e-06  1.21e-05  3.98e-04  2.18e-04     0.2
   13    -153.7735746954815568    -1.10e-06  1.09e-05  3.95e-04  2.13e-04     0.3
   14    -153.7735755376353382    -8.42e-07  3.17e-05  1.20e-03  2.20e-04     0.3
   15    -153.7735777157682264    -2.18e-06  5.25e-05  2.03e-03  4.04e-04     0.3
   16    -153.7735809021940554    -3.19e-06  6.19e-05  2.40e-03  4.78e-04     0.3
   17    -153.7735841211470529    -3.22e-06  3.45e-05  1.29e-03  3.63e-04     0.3
   18    -153.7735857487428461    -1.63e-06  6.07e-06  2.17e-04  1.30e-04     0.3
   19    -153.7735861194034896    -3.71e-07  4.42e-06  1.53e-04  3.67e-05     0.3
   20    -153.7735861649949811    -4.56e-08  1.36e-06  5.52e-05  1.70e-05     0.3
   21    -153.7735861727273345    -7.73e-09  4.86e-07  1.60e-05  7.13e-06     0.2
                 **** Energy Check signals convergence ****

               *****************************************************
               *                     SUCCESS                       *
               *           SCF CONVERGED AFTER  21 CYCLES          *
               *****************************************************

Recomputing exchange energy using gridx3       ... done (    0.171 sec)
Old exchange energy                            :     -6.194221844 Eh
New exchange energy                            :     -6.194224710 Eh
Exchange energy change after final integration :     -0.000002866 Eh
Total energy after final integration           :   -153.773589039 Eh
             **** ENERGY FILE WAS UPDATED (orca.en.tmp) ****

----------------
TOTAL SCF ENERGY
----------------

Total Energy       :       -153.77358903850381 Eh           -4184.39209 eV

Components:
Nuclear Repulsion  :         67.33773120709078 Eh            1832.35282 eV
Electronic Energy  :       -221.11131737981816 Eh           -6016.74483 eV
One Electron Energy:       -341.26417743148448 Eh           -9286.27037 eV
Two Electron Energy:        120.15286005166634 Eh            3269.52554 eV

Virial components:
Potential Energy   :       -307.02573982304000 Eh           -8354.59512 eV
Kinetic Energy     :        153.25215078453621 Eh            4170.20303 eV
Virial Ratio       :          2.00340248571585

DFT components:
N(Alpha)           :       12.999986274632 electrons
N(Beta)            :       10.999976677680 electrons
N(Total)           :       23.999962952312 electrons
E(XC)              :      -14.683429659765 Eh       

---------------
SCF CONVERGENCE
---------------

  Last Energy change         ...    7.7324e-09  Tolerance :   1.0000e-08
  Last MAX-Density change    ...    1.5970e-05  Tolerance :   1.0000e-07
  Last RMS-Density change    ...    4.8635e-07  Tolerance :   5.0000e-09
  Last DIIS Error            ...    3.2089e-03  Tolerance :   5.0000e-07
  Last Orbital Gradient      ...    7.1274e-06  Tolerance :   1.0000e-05
  Last Orbital Rotation      ...    9.6029e-05  Tolerance :   1.0000e-05


----------------------
UHF SPIN CONTAMINATION
----------------------

Warning: in a DFT calculation there is little theoretical justification to 
         calculate <S**2> as in Hartree-Fock theory. We will do it anyways
         but you should keep in mind that the values have only limited relevance

Expectation value of <S**2>     :     2.008034
Ideal value S*(S+1) for S=1.0   :     2.000000
Deviation                       :     0.008034

----------------
ORBITAL ENERGIES
----------------
                 SPIN UP ORBITALS
  NO   OCC          E(Eh)            E(eV) 
   0   1.0000     -19.389977      -527.6281 
   1   1.0000     -10.418997      -283.5153 
   2   1.0000     -10.362806      -281.9863 
   3   1.0000      -1.153904       -31.3993 
   4   1.0000      -0.884420       -24.0663 
   5   1.0000      -0.734846       -19.9962 
   6   1.0000      -0.615741       -16.7552 
   7   1.0000      -0.578810       -15.7502 
   8   1.0000      -0.553864       -15.0714 
   9   1.0000      -0.514146       -13.9906 
  10   1.0000      -0.438058       -11.9202 
  11   1.0000      -0.416653       -11.3377 
  12   1.0000      -0.324809        -8.8385 
  13   0.0000       0.041430         1.1274 
  14   0.0000       0.060580         1.6485 
  15   0.0000       0.077133         2.0989 
  16   0.0000       0.088070         2.3965 
  17   0.0000       0.115051         3.1307 
  18   0.0000       0.126856         3.4519 
  19   0.0000       0.129888         3.5344 
  20   0.0000       0.138794         3.7768 
  21   0.0000       0.171601         4.6695 
  22   0.0000       0.181825         4.9477 
  23   0.0000       0.205557         5.5935 

                 SPIN DOWN ORBITALS
  NO   OCC          E(Eh)            E(eV) 
   0   1.0000     -19.365081      -526.9506 
   1   1.0000     -10.420389      -283.5532 
   2   1.0000     -10.349830      -281.6332 
   3   1.0000      -1.096489       -29.8370 
   4   1.0000      -0.851377       -23.1672 
   5   1.0000      -0.709277       -19.3004 
   6   1.0000      -0.587295       -15.9811 
   7   1.0000      -0.548004       -14.9120 
   8   1.0000      -0.528070       -14.3695 
   9   1.0000      -0.477670       -12.9981 
  10   1.0000      -0.384710       -10.4685 
  11   0.0000      -0.053693        -1.4611 
  12   0.0000      -0.001105        -0.0301 
  13   0.0000       0.040178         1.0933 
  14   0.0000       0.060816         1.6549 
  15   0.0000       0.076977         2.0947 
  16   0.0000       0.090733         2.4690 
  17   0.0000       0.115620         3.1462 
  18   0.0000       0.127958         3.4819 
  19   0.0000       0.135385         3.6840 
  20   0.0000       0.141862         3.8603 
  21   0.0000       0.177913         4.8413 
*Only the first 10 virtual orbitals were printed.

                    ********************************
                    * MULLIKEN POPULATION ANALYSIS *
                    ********************************

--------------------------------------------
MULLIKEN ATOMIC CHARGES AND SPIN POPULATIONS
--------------------------------------------
   0 O :   -0.312675    0.959759
   1 C :    0.002707   -0.000353
   2 C :   -0.618123    0.840858
   3 H :    0.208349    0.050760
   4 H :    0.191033    0.098637
   5 H :    0.293229    0.029113
   6 H :    0.235480    0.021226
Sum of atomic charges         :   -0.0000000
Sum of atomic spin populations:    2.0000000

-----------------------------------------------------
MULLIKEN REDUCED ORBITAL CHARGES AND SPIN POPULATIONS
-----------------------------------------------------
CHARGE
  0 O s       :     3.986532  s :     3.986532
      pz      :     1.871594  p :     4.305829
      px      :     1.174130
      py      :     1.260105
      dz2     :     0.002589  d :     0.019210
      dxz     :     0.001963
      dyz     :     0.001790
      dx2y2   :     0.005933
      dxy     :     0.006936
      f0      :     0.000142  f :     0.001104
      f+1     :     0.000166
      f-1     :     0.000139
      f+2     :     0.000027
      f-2     :     0.000160
      f+3     :     0.000230
      f-3     :     0.000241

  1 C s       :     3.210701  s :     3.210701
      pz      :     0.904129  p :     2.637480
      px      :     0.849280
      py      :     0.884071
      dz2     :     0.021828  d :     0.139295
      dxz     :     0.032132
      dyz     :     0.028028
      dx2y2   :     0.030952
      dxy     :     0.026355
      f0      :     0.001847  f :     0.009817
      f+1     :     0.000980
      f-1     :     0.001127
      f+2     :     0.000592
      f-2     :     0.002499
      f+3     :     0.001469
      f-3     :     0.001304

  2 C s       :     3.597843  s :     3.597843
      pz      :     0.961548  p :     3.002979
      px      :     1.093775
      py      :     0.947655
      dz2     :     0.002915  d :     0.013267
      dxz     :    -0.001384
      dyz     :     0.000230
      dx2y2   :     0.000523
      dxy     :     0.010983
      f0      :     0.000756  f :     0.004035
      f+1     :     0.000590
      f-1     :     0.000810
      f+2     :     0.000693
      f-2     :     0.000762
      f+3     :     0.000180
      f-3     :     0.000242

  3 H s       :     0.752348  s :     0.752348
      pz      :     0.005926  p :     0.036920
      px      :     0.021085
      py      :     0.009909
      dz2     :     0.000423  d :     0.002383
      dxz     :     0.000491
      dyz     :     0.000356
      dx2y2   :     0.000611
      dxy     :     0.000502

  4 H s       :     0.773376  s :     0.773376
      pz      :     0.006548  p :     0.033061
      px      :     0.011557
      py      :     0.014956
      dz2     :     0.000645  d :     0.002530
      dxz     :     0.000329
      dyz     :     0.000531
      dx2y2   :     0.000433
      dxy     :     0.000592

  5 H s       :     0.667478  s :     0.667478
      pz      :     0.015561  p :     0.037074
      px      :     0.004793
      py      :     0.016720
      dz2     :     0.000490  d :     0.002218
      dxz     :     0.000480
      dyz     :     0.000226
      dx2y2   :     0.000329
      dxy     :     0.000694

  6 H s       :     0.727393  s :     0.727393
      pz      :     0.014551  p :     0.034946
      px      :     0.003409
      py      :     0.016986
      dz2     :     0.000432  d :     0.002180
      dxz     :     0.000412
      dyz     :     0.000363
      dx2y2   :     0.000562
      dxy     :     0.000411


SPIN
  0 O s       :     0.005520  s :     0.005520
      pz      :     0.057607  p :     0.958142
      px      :     0.461371
      py      :     0.439165
      dz2     :    -0.000106  d :    -0.003763
      dxz     :    -0.000029
      dyz     :    -0.000454
      dx2y2   :    -0.003669
      dxy     :     0.000495
      f0      :     0.000037  f :    -0.000140
      f+1     :     0.000038
      f-1     :     0.000032
      f+2     :     0.000000
      f-2     :    -0.000028
      f+3     :    -0.000101
      f-3     :    -0.000118

  1 C s       :     0.015337  s :     0.015337
      pz      :    -0.017535  p :    -0.084766
      px      :    -0.023917
      py      :    -0.043315
      dz2     :     0.018703  d :     0.066230
      dxz     :    -0.000338
      dyz     :     0.008994
      dx2y2   :     0.029006
      dxy     :     0.009864
      f0      :     0.001015  f :     0.002847
      f+1     :     0.000075
      f-1     :     0.000027
      f+2     :     0.000133
      f-2     :     0.000334
      f+3     :     0.000927
      f-3     :     0.000335

  2 C s       :    -0.044106  s :    -0.044106
      pz      :     0.268800  p :     0.895900
      px      :     0.078511
      py      :     0.548590
      dz2     :    -0.002844  d :    -0.009825
      dxz     :    -0.002778
      dyz     :    -0.001074
      dx2y2   :    -0.000758
      dxy     :    -0.002370
      f0      :    -0.000125  f :    -0.001111
      f+1     :    -0.000032
      f-1     :    -0.000278
      f+2     :    -0.000233
      f-2     :    -0.000203
      f+3     :    -0.000081
      f-3     :    -0.000161

  3 H s       :     0.047577  s :     0.047577
      pz      :    -0.000636  p :     0.003149
      px      :     0.004392
      py      :    -0.000608
      dz2     :    -0.000010  d :     0.000034
      dxz     :    -0.000004
      dyz     :     0.000047
      dx2y2   :    -0.000018
      dxy     :     0.000018

  4 H s       :     0.086066  s :     0.086066
      pz      :     0.002123  p :     0.012480
      px      :     0.001876
      py      :     0.008481
      dz2     :     0.000017  d :     0.000090
      dxz     :     0.000024
      dyz     :     0.000038
      dx2y2   :     0.000016
      dxy     :    -0.000005

  5 H s       :     0.001085  s :     0.001085
      pz      :     0.011310  p :     0.026940
      px      :     0.000362
      py      :     0.015269
      dz2     :     0.000218  d :     0.001088
      dxz     :     0.000110
      dyz     :     0.000171
      dx2y2   :     0.000111
      dxy     :     0.000478

  6 H s       :    -0.001850  s :    -0.001850
      pz      :     0.006547  p :     0.022118
      px      :     0.001867
      py      :     0.013704
      dz2     :     0.000206  d :     0.000958
      dxz     :     0.000199
      dyz     :     0.000037
      dx2y2   :     0.000400
      dxy     :     0.000115



                     *******************************
                     * LOEWDIN POPULATION ANALYSIS *
                     *******************************

-------------------------------------------
LOEWDIN ATOMIC CHARGES AND SPIN POPULATIONS
-------------------------------------------
   0 O :    0.026509    0.903493
   1 C :   -0.233437    0.188302
   2 C :    0.242910    0.650678
   3 H :    0.068037    0.030895
   4 H :    0.019608    0.063280
   5 H :   -0.108761    0.096975
   6 H :   -0.014867    0.066377

----------------------------------------------------
LOEWDIN REDUCED ORBITAL CHARGES AND SPIN POPULATIONS
----------------------------------------------------
CHARGE
  0 O s       :     3.511905  s :     3.511905
      pz      :     1.716506  p :     4.209203
      px      :     1.223106
      py      :     1.269590
      dz2     :     0.020659  d :     0.249001
      dxz     :     0.051951
      dyz     :     0.040787
      dx2y2   :     0.074485
      dxy     :     0.061118
      f0      :     0.000370  f :     0.003382
      f+1     :     0.000355
      f-1     :     0.000266
      f+2     :     0.000086
      f-2     :     0.000660
      f+3     :     0.000837
      f-3     :     0.000808

  1 C s       :     2.664973  s :     2.664973
      pz      :     0.923825  p :     2.606160
      px      :     0.815135
      py      :     0.867200
      dz2     :     0.142634  d :     0.884715
      dxz     :     0.200613
      dyz     :     0.219304
      dx2y2   :     0.108575
      dxy     :     0.213589
      f0      :     0.013406  f :     0.077589
      f+1     :     0.008554
      f-1     :     0.009492
      f+2     :     0.007101
      f-2     :     0.015180
      f+3     :     0.011263
      f-3     :     0.012593

  2 C s       :     2.722531  s :     2.722531
      pz      :     0.873128  p :     2.597073
      px      :     0.947528
      py      :     0.776417
      dz2     :     0.093217  d :     0.412830
      dxz     :     0.124588
      dyz     :     0.090018
      dx2y2   :     0.048174
      dxy     :     0.056834
      f0      :     0.005353  f :     0.024656
      f+1     :     0.003351
      f-1     :     0.004107
      f+2     :     0.004459
      f-2     :     0.004404
      f+3     :     0.001715
      f-3     :     0.001266

  3 H s       :     0.674403  s :     0.674403
      pz      :     0.070681  p :     0.233342
      px      :     0.088958
      py      :     0.073703
      dz2     :     0.004163  d :     0.024217
      dxz     :     0.005618
      dyz     :     0.004046
      dx2y2   :     0.004605
      dxy     :     0.005786

  4 H s       :     0.675032  s :     0.675032
      pz      :     0.102247  p :     0.274907
      px      :     0.067465
      py      :     0.105194
      dz2     :     0.007216  d :     0.030453
      dxz     :     0.003376
      dyz     :     0.008535
      dx2y2   :     0.005488
      dxy     :     0.005838

  5 H s       :     0.745910  s :     0.745910
      pz      :     0.094978  p :     0.324858
      px      :     0.136784
      py      :     0.093096
      dz2     :     0.006525  d :     0.037994
      dxz     :     0.010984
      dyz     :     0.002766
      dx2y2   :     0.008305
      dxy     :     0.009414

  6 H s       :     0.717464  s :     0.717464
      pz      :     0.078016  p :     0.269949
      px      :     0.101441
      py      :     0.090493
      dz2     :     0.004885  d :     0.027454
      dxz     :     0.005756
      dyz     :     0.004800
      dx2y2   :     0.006107
      dxy     :     0.005906


SPIN
  0 O s       :     0.016506  s :     0.016506
      pz      :     0.062843  p :     0.874067
      px      :     0.414015
      py      :     0.397209
      dz2     :     0.000248  d :     0.012948
      dxz     :     0.002423
      dyz     :     0.001402
      dx2y2   :     0.007768
      dxy     :     0.001108
      f0      :    -0.000006  f :    -0.000029
      f+1     :     0.000017
      f-1     :    -0.000000
      f+2     :     0.000011
      f-2     :     0.000022
      f+3     :     0.000015
      f-3     :    -0.000086

  1 C s       :    -0.004111  s :    -0.004111
      pz      :    -0.013318  p :    -0.020303
      px      :    -0.002522
      py      :    -0.004463
      dz2     :     0.051382  d :     0.191062
      dxz     :     0.000461
      dyz     :     0.042468
      dx2y2   :     0.072212
      dxy     :     0.024539
      f0      :     0.007128  f :     0.021654
      f+1     :     0.000840
      f-1     :     0.000495
      f+2     :     0.001262
      f-2     :     0.002179
      f+3     :     0.006908
      f-3     :     0.002841

  2 C s       :     0.010802  s :     0.010802
      pz      :     0.168513  p :     0.641768
      px      :     0.074024
      py      :     0.399230
      dz2     :     0.002496  d :    -0.001448
      dxz     :    -0.000467
      dyz     :    -0.000124
      dx2y2   :    -0.001294
      dxy     :    -0.002060
      f0      :     0.000011  f :    -0.000443
      f+1     :     0.000159
      f-1     :    -0.000319
      f+2     :    -0.000062
      f-2     :    -0.000121
      f+3     :    -0.000012
      f-3     :    -0.000098

  3 H s       :     0.029278  s :     0.029278
      pz      :    -0.001289  p :     0.001944
      px      :     0.003673
      py      :    -0.000440
      dz2     :    -0.000035  d :    -0.000327
      dxz     :    -0.000167
      dyz     :     0.000102
      dx2y2   :    -0.000209
      dxy     :    -0.000017

  4 H s       :     0.049315  s :     0.049315
      pz      :     0.004187  p :     0.014284
      px      :     0.005155
      py      :     0.004942
      dz2     :    -0.000041  d :    -0.000318
      dxz     :     0.000005
      dyz     :    -0.000052
      dx2y2   :    -0.000068
      dxy     :    -0.000162

  5 H s       :    -0.009884  s :    -0.009884
      pz      :     0.025143  p :     0.093618
      px      :     0.011883
      py      :     0.056592
      dz2     :     0.002244  d :     0.013241
      dxz     :     0.001368
      dyz     :     0.002111
      dx2y2   :     0.001891
      dxy     :     0.005626

  6 H s       :    -0.013760  s :    -0.013760
      pz      :     0.017101  p :     0.071053
      px      :     0.009129
      py      :     0.044823
      dz2     :     0.001680  d :     0.009084
      dxz     :     0.002244
      dyz     :     0.000313
      dx2y2   :     0.003582
      dxy     :     0.001266



                      *****************************
                      * MAYER POPULATION ANALYSIS *
                      *****************************

  NA   - Mulliken gross atomic population
  ZA   - Total nuclear charge
  QA   - Mulliken gross atomic charge
  VA   - Mayer's total valence
  BVA  - Mayer's bonded valence
  FA   - Mayer's free valence

  ATOM       NA         ZA         QA         VA         BVA        FA
  0 O      8.3127     8.0000    -0.3127     1.8365     1.0356     0.8009
  1 C      5.9973     6.0000     0.0027     3.5386     3.5253     0.0134
  2 C      6.6181     6.0000    -0.6181     3.4736     2.7118     0.7618
  3 H      0.7917     1.0000     0.2083     1.0180     1.0160     0.0019
  4 H      0.8090     1.0000     0.1910     0.9947     0.9882     0.0065
  5 H      0.7068     1.0000     0.2932     0.8806     0.8807    -0.0001
  6 H      0.7645     1.0000     0.2355     0.9473     0.9470     0.0003

  Mayer bond orders larger than 0.100000
B(  0-O ,  1-C ) :   0.8719 B(  1-C ,  2-C ) :   0.7809 B(  1-C ,  3-H ) :   0.9583 
B(  1-C ,  4-H ) :   0.9644 B(  2-C ,  5-H ) :   0.9073 B(  2-C ,  6-H ) :   0.9762 


-------
TIMINGS
-------

Total SCF time: 0 days 0 hours 0 min 7 sec 

Total time                  ....       7.699 sec
Sum of individual times     ....       7.675 sec  ( 99.7%)

SCF preparation             ....       1.617 sec  ( 21.0%)
Fock matrix formation       ....       4.770 sec  ( 61.9%)
  Startup                   ....       0.085 sec  (  1.8% of F)
  Split-RI-J                ....       0.499 sec  ( 10.5% of F)
  Chain of spheres X        ....       2.684 sec  ( 56.3% of F)
  XC integration            ....       1.205 sec  ( 25.3% of F)
    Basis function eval.    ....       0.059 sec  (  4.9% of XC)
    Density eval.           ....       0.240 sec  ( 19.9% of XC)
    XC-Functional eval.     ....       0.016 sec  (  1.3% of XC)
    XC-Potential eval.      ....       0.327 sec  ( 27.1% of XC)
Diagonalization             ....       0.000 sec  (  0.0%)
Density matrix formation    ....       0.158 sec  (  2.0%)
Total Energy calculation    ....       0.140 sec  (  1.8%)
Population analysis         ....       0.043 sec  (  0.6%)
Orbital Transformation      ....       0.084 sec  (  1.1%)
[...]
[1741608734.254152] [ohm:3254827:0]        ib_iface.c:1059 UCX  ERROR ibv_create_cq(cqe=256) failed: Connection timed out
[1741608734.254959] [ohm:3254769:0]        ib_iface.c:1059 UCX  ERROR ibv_create_cq(cqe=256) failed: Connection timed out
[1741608734.257647] [ohm:3254777:0]        ib_iface.c:1059 UCX  ERROR ibv_create_cq(cqe=256) failed: Connection timed out
[1741608734.258177] [ohm:3254776:0]        ib_iface.c:1059 UCX  ERROR ibv_create_cq(cqe=256) failed: Connection timed out
[1741608734.261121] [ohm:3254865:0]        ib_iface.c:1059 UCX  ERROR ibv_create_cq(cqe=256) failed: Connection timed out
[1741608734.261893] [ohm:3254816:0]        ib_iface.c:1059 UCX  ERROR ibv_create_cq(cqe=256) failed: Connection timed out
[1741608734.261897] [ohm:3254866:0]        ib_iface.c:1059 UCX  ERROR ibv_create_cq(cqe=256) failed: Connection timed out
[1741608734.263899] [ohm:3254847:0]        ib_iface.c:1059 UCX  ERROR ibv_create_cq(cqe=256) failed: Connection timed out
[1741608734.264774] [ohm:3254819:0]        ib_iface.c:1059 UCX  ERROR ibv_create_cq(cqe=256) failed: Connection timed out
[1741608734.264830] [ohm:3254843:0]        ib_iface.c:1059 UCX  ERROR ibv_create_cq(cqe=256) failed: Connection timed out


           ************************************************************
           *        Program running with 64 parallel MPI-processes    *
           *              working on a common directory               *
           ************************************************************

------------------------------------------------------------------------------
                              ORCA PROPERTY CALCULATIONS
------------------------------------------------------------------------------

GBWName                                 ... orca.gbw
Number of atoms                         ...      7
Number of basis functions               ...    182
Max core memory                         ...   1024 MB

Electric properties:
Dipole moment                           ... YES
Quadrupole moment                       ...  NO
Static polarizability (Dipole/Dipole)   ...  NO
Static polarizability (Dipole/Quad.)    ...  NO
Static polarizability (Quad./Quad.)     ...  NO
Static polarizability (Velocity)        ...  NO

Atomic electric properties:
Dipole moment                           ...  NO
Quadrupole moment                       ...  NO
Static polarizability                   ...  NO

Choice of electric origin               ... Center of mass
Position of electric origin             ...     0.766082     0.127042     0.137510

General magnetic properties:
Magnetizability                         ...  NO

EPR properties:
g-Tensor (aka g-matrix)                 ...  NO
Zero-Field splitting spin-orbit         ...  NO
Zero-field splitting spin-spin          ...  NO
Hyperfine couplings                     ...  NO (   0 nuclei)
Quadrupole couplings                    ...  NO (   0 nuclei)
Contact density                         ...  NO (   0 nuclei)

NMR properties:
Chemical shifts                         ...  NO (   0 nuclei)
Spin-rotation constants                 ...  NO (   0 nuclei)
Spin-spin couplings                     ...  NO (   0 nuclei,    0 pairs)

Choice of magnetic origin               ... GIAO
Position of magnetic origin             ...     0.000000     0.000000     0.000000

Properties with geometric perturbations:
SCF Hessian                             ...  NO
IR spectrum                             ...  NO
VCD spectrum                            ...  NO
X-ray spectroscopy properties:
SCF XES/XAS/RIXS spectra                ...  NO


-------------
DIPOLE MOMENT
-------------

Method             : SCF
Type of density    : Electron Density
Multiplicity       :   3
Irrep              :   0
Energy             :  -153.7735890385038147 Eh
Relativity type    : 
Basis              : AO
                                X                 Y                 Z
Electronic contribution:      1.699665275       1.801373997       0.535121149
Nuclear contribution   :     -2.267903319      -2.345169590      -0.408386871
                        -----------------------------------------
Total Dipole Moment    :     -0.568238044      -0.543795593       0.126734278
                        -----------------------------------------
Magnitude (a.u.)       :      0.796661596
Magnitude (Debye)      :      2.024952852



--------------------
Rotational spectrum 
--------------------
 
Rotational constants in cm-1:             1.391080             0.347160             0.305981 
Rotational constants in MHz :         41703.537568         10407.606900          9173.079599 

Dipole components along the rotational axes: 
x,y,z [a.u.] :    -0.637899     0.469310    -0.086620 
x,y,z [Debye]:    -1.621410     1.192890    -0.220170 

 

-------------
DIPOLE MOMENT
-------------

Method             : TDA/CIS
Type of density    : Electron Density
Level              : Relaxed density
State              :   1
Multiplicity       :   3
Irrep              :   0
Energy             :     0.0000000000000000 Eh
Relativity type    : 
Basis              : AO
                                X                 Y                 Z
Electronic contribution:      1.288761821       1.482085780       0.238781299
Nuclear contribution   :     -2.267903319      -2.345169590      -0.408386871
                        -----------------------------------------
Total Dipole Moment    :     -0.979141498      -0.863083809      -0.169605572
                        -----------------------------------------
Magnitude (a.u.)       :      1.316205829
Magnitude (Debye)      :      3.345529345



--------------------
Rotational spectrum 
--------------------
 
Rotational constants in cm-1:             1.391080             0.347160             0.305981 
Rotational constants in MHz :         41703.537568         10407.606900          9173.079599 

Dipole components along the rotational axes: 
x,y,z [a.u.] :    -1.229087     0.470814     0.008766 
x,y,z [Debye]:    -3.124091     1.196715     0.022282 

 

Dipole moment calculation done in   0.0 sec 

Maximum memory used throughout the entire PROP-calculation: 7.4 MB
[1741608735.957002] [ohm:3255061:0]        ib_iface.c:1059 UCX  ERROR ibv_create_cq(cqe=256) failed: Connection timed out
[1741608735.964391] [ohm:3255062:0]        ib_iface.c:1059 UCX  ERROR ibv_create_cq(cqe=256) failed: Connection timed out
[1741608735.979435] [ohm:3255060:0]        ib_iface.c:1059 UCX  ERROR ibv_create_cq(cqe=256) failed: Connection timed out
[1741608735.981298] [ohm:3255056:0]        ib_iface.c:1059 UCX  ERROR ibv_create_cq(cqe=256) failed: Connection timed out
[1741608735.984026] [ohm:3255158:0]        ib_iface.c:1059 UCX  ERROR ibv_create_cq(cqe=256) failed: Connection timed out
[1741608735.985333] [ohm:3255086:0]        ib_iface.c:1059 UCX  ERROR ibv_create_cq(cqe=256) failed: Connection timed out
[1741608735.985200] [ohm:3255071:0]        ib_iface.c:1059 UCX  ERROR ibv_create_cq(cqe=256) failed: Connection timed out
[1741608735.985989] [ohm:3255078:0]        ib_iface.c:1059 UCX  ERROR ibv_create_cq(cqe=256) failed: Connection timed out
[1741608735.989838] [ohm:3255141:0]        ib_iface.c:1059 UCX  ERROR ibv_create_cq(cqe=256) failed: Connection timed out
[1741608735.999203] [ohm:3255154:0]        ib_iface.c:1059 UCX  ERROR ibv_create_cq(cqe=256) failed: Connection timed out
[1741608735.999344] [ohm:3255180:0]        ib_iface.c:1059 UCX  ERROR ibv_create_cq(cqe=256) failed: Connection timed out
[1741608736.001158] [ohm:3255081:0]        ib_iface.c:1059 UCX  ERROR ibv_create_cq(cqe=256) failed: Connection timed out
[1741608736.003109] [ohm:3255099:0]        ib_iface.c:1059 UCX  ERROR ibv_create_cq(cqe=256) failed: Connection timed out
[1741608736.011270] [ohm:3255151:0]        ib_iface.c:1059 UCX  ERROR ibv_create_cq(cqe=256) failed: Connection timed out
[1741608736.014554] [ohm:3255165:0]        ib_iface.c:1059 UCX  ERROR ibv_create_cq(cqe=256) failed: Connection timed out
[1741608736.022805] [ohm:3255108:0]        ib_iface.c:1059 UCX  ERROR ibv_create_cq(cqe=256) failed: Connection timed out
[1741608736.025191] [ohm:3255187:0]        ib_iface.c:1059 UCX  ERROR ibv_create_cq(cqe=256) failed: Connection timed out
[1741608736.069497] [ohm:3255193:0]        ib_iface.c:1059 UCX  ERROR ibv_create_cq(cqe=256) failed: Connection timed out
[1741608736.077965] [ohm:3255138:0]        ib_iface.c:1059 UCX  ERROR ibv_create_cq(cqe=256) failed: Connection timed out
[1741608736.085877] [ohm:3255063:0]        ib_iface.c:1059 UCX  ERROR ibv_create_cq(cqe=256) failed: Connection timed out
[1741608736.092612] [ohm:3255080:0]        ib_iface.c:1059 UCX  ERROR ibv_create_cq(cqe=256) failed: Connection timed out
[1741608736.101851] [ohm:3255112:0]        ib_iface.c:1059 UCX  ERROR ibv_create_cq(cqe=256) failed: Connection timed out
[1741608736.102315] [ohm:3255075:0]        ib_iface.c:1059 UCX  ERROR ibv_create_cq(cqe=256) failed: Connection timed out
[1741608736.103128] [ohm:3255127:0]        ib_iface.c:1059 UCX  ERROR ibv_create_cq(cqe=256) failed: Connection timed out
[1741608736.108920] [ohm:3255077:0]        ib_iface.c:1059 UCX  ERROR ibv_create_cq(cqe=256) failed: Connection timed out
[1741608736.113498] [ohm:3255087:0]        ib_iface.c:1059 UCX  ERROR ibv_create_cq(cqe=256) failed: Connection timed out
[1741608736.134902] [ohm:3255065:0]        ib_iface.c:1059 UCX  ERROR ibv_create_cq(cqe=256) failed: Connection timed out
[1741608736.145846] [ohm:3255131:0]        ib_iface.c:1059 UCX  ERROR ibv_create_cq(cqe=256) failed: Connection timed out
[1741608736.150285] [ohm:3255116:0]        ib_iface.c:1059 UCX  ERROR ibv_create_cq(cqe=256) failed: Connection timed out
[1741608736.151499] [ohm:3255200:0]        ib_iface.c:1059 UCX  ERROR ibv_create_cq(cqe=256) failed: Connection timed out
[1741608736.151503] [ohm:3255082:0]        ib_iface.c:1059 UCX  ERROR ibv_create_cq(cqe=256) failed: Connection timed out
[1741608736.168692] [ohm:3255093:0]        ib_iface.c:1059 UCX  ERROR ibv_create_cq(cqe=256) failed: Connection timed out
[1741608736.170300] [ohm:3255073:0]        ib_iface.c:1059 UCX  ERROR ibv_create_cq(cqe=256) failed: Connection timed out
[1741608736.172443] [ohm:3255066:0]        ib_iface.c:1059 UCX  ERROR ibv_create_cq(cqe=256) failed: Connection timed out
[1741608736.180827] [ohm:3255121:0]        ib_iface.c:1059 UCX  ERROR ibv_create_cq(cqe=256) failed: Connection timed out
[1741608736.183233] [ohm:3255076:0]        ib_iface.c:1059 UCX  ERROR ibv_create_cq(cqe=256) failed: Connection timed out
[1741608736.190660] [ohm:3255103:0]        ib_iface.c:1059 UCX  ERROR ibv_create_cq(cqe=256) failed: Connection timed out
[1741608736.191571] [ohm:3255067:0]        ib_iface.c:1059 UCX  ERROR ibv_create_cq(cqe=256) failed: Connection timed out
[1741608736.191749] [ohm:3255161:0]        ib_iface.c:1059 UCX  ERROR ibv_create_cq(cqe=256) failed: Connection timed out
[1741608736.191720] [ohm:3255079:0]        ib_iface.c:1059 UCX  ERROR ibv_create_cq(cqe=256) failed: Connection timed out
[1741608736.194120] [ohm:3255146:0]        ib_iface.c:1059 UCX  ERROR ibv_create_cq(cqe=256) failed: Connection timed out
[1741608736.203338] [ohm:3255070:0]        ib_iface.c:1059 UCX  ERROR ibv_create_cq(cqe=256) failed: Connection timed out
[1741608736.203474] [ohm:3255183:0]        ib_iface.c:1059 UCX  ERROR ibv_create_cq(cqe=256) failed: Connection timed out
[1741608736.209283] [ohm:3255090:0]        ib_iface.c:1059 UCX  ERROR ibv_create_cq(cqe=256) failed: Connection timed out
[1741608736.211711] [ohm:3255125:0]        ib_iface.c:1059 UCX  ERROR ibv_create_cq(cqe=256) failed: Connection timed out
[1741608736.214281] [ohm:3255068:0]        ib_iface.c:1059 UCX  ERROR ibv_create_cq(cqe=256) failed: Connection timed out
[1741608736.216358] [ohm:3255096:0]        ib_iface.c:1059 UCX  ERROR ibv_create_cq(cqe=256) failed: Connection timed out
[1741608736.220067] [ohm:3255162:0]        ib_iface.c:1059 UCX  ERROR ibv_create_cq(cqe=256) failed: Connection timed out
[1741608736.225742] [ohm:3255074:0]        ib_iface.c:1059 UCX  ERROR ibv_create_cq(cqe=256) failed: Connection timed out
[1741608736.236254] [ohm:3255185:0]        ib_iface.c:1059 UCX  ERROR ibv_create_cq(cqe=256) failed: Connection timed out
[1741608736.236516] [ohm:3255177:0]        ib_iface.c:1059 UCX  ERROR ibv_create_cq(cqe=256) failed: Connection timed out
[1741608736.249279] [ohm:3255057:0]        ib_iface.c:1059 UCX  ERROR ibv_create_cq(cqe=256) failed: Connection timed out
[1741608736.249277] [ohm:3255058:0]        ib_iface.c:1059 UCX  ERROR ibv_create_cq(cqe=256) failed: Connection timed out
[1741608736.250185] [ohm:3255170:0]        ib_iface.c:1059 UCX  ERROR ibv_create_cq(cqe=256) failed: Connection timed out
[1741608736.251690] [ohm:3255168:0]        ib_iface.c:1059 UCX  ERROR ibv_create_cq(cqe=256) failed: Connection timed out
[1741608736.252308] [ohm:3255174:0]        ib_iface.c:1059 UCX  ERROR ibv_create_cq(cqe=256) failed: Connection timed out
[1741608736.255621] [ohm:3255059:0]        ib_iface.c:1059 UCX  ERROR ibv_create_cq(cqe=256) failed: Connection timed out
[1741608736.257314] [ohm:3255195:0]        ib_iface.c:1059 UCX  ERROR ibv_create_cq(cqe=256) failed: Connection timed out
[1741608736.258820] [ohm:3255072:0]        ib_iface.c:1059 UCX  ERROR ibv_create_cq(cqe=256) failed: Connection timed out
[1741608736.262810] [ohm:3255064:0]        ib_iface.c:1059 UCX  ERROR ibv_create_cq(cqe=256) failed: Connection timed out
[1741608736.263870] [ohm:3255134:0]        ib_iface.c:1059 UCX  ERROR ibv_create_cq(cqe=256) failed: Connection timed out
[1741608736.265745] [ohm:3255083:0]        ib_iface.c:1059 UCX  ERROR ibv_create_cq(cqe=256) failed: Connection timed out
[1741608736.266207] [ohm:3255069:0]        ib_iface.c:1059 UCX  ERROR ibv_create_cq(cqe=256) failed: Connection timed out
[1741608736.266975] [ohm:3255148:0]        ib_iface.c:1059 UCX  ERROR ibv_create_cq(cqe=256) failed: Connection timed out

--------------------------------
SUGGESTED CITATIONS FOR THIS RUN
--------------------------------

Below you find a list of papers that are relevant to this ORCA run
We neither can nor want to force you to cite these papers, but we appreciate if you do
You receive ORCA, which is the product of decades of hard work by many enthusiastic individuals, for free
The only thing we kindly ask in return is that you cite our papers,
We deeply appreciate it, if you show your appreciation for ORCA by not just citing the generic ORCA reference.

Please note that relegating all ORCA citations to the supporting information does *not* help us.
SI sections are not indexed - citations you put there will not count into any citation statistics
But we need these citations in order to attract the funding resources that allow us to do what we are doing

Therefore, if you are a happy ORCA user, please consider citing a few of the papers listed below in the main body of your paper

In addition to the list printed below, the program has created the file orca.bibtex that contains the list in bibtex format
You can import this file easily into all common literature databanks and citation aid programs


List of essential papers. We consider these as the minimum necessary citations

  1. Neese,F.
     Software update: the ORCA program system, version 5.0
     WIRES Comput. Molec. Sci., 2022 12(1)e1606
     doi.org/10.1002/wcms.1606

List of papers to cite with high priority. The work reported in these papers was absolutely
necessary for this run to complete.
Our perspective: the developers of density functionals and basis sets usually get cited in chemistry papers
Good! But without the algorithms to do something with them, the functionals or basis sets would not do anything.
Hence, in our opinion, the algorithm design and method developments papers are equally worthy of getting cited

  1. Neese,F.; Olbrich,G.
     Efficient use of the resolution of the identity approximation in time-dependent density functional calculations with hybrid density functionals
     Chem. Phys. Lett., 2002 362 170-178
     doi.org/10.1016/s0009-2614(02)01053-9
  2. Neese,F.
     An improvement of the resolution of the identity approximation for the formation of the Coulomb matrix
     J. Comp. Chem., 2003 24(14)1740-1747
     doi.org/10.1002/jcc.10318
  3. Neese,F.; Wennmohs,F.; Hansen,A.; Becker,U.
     Efficient, approximate and parallel Hartree-Fock and hybrid DFT calculations. A 'chain-of-spheres' algorithm for the Hartree-Fock exchange
     Chem. Phys., 2009 356(1-3)98-109
     doi.org/10.1016/j.chemphys.2008.10.036
  4. Petrenko,T.; Kossmann,S.; Neese,F.
     Efficient time-dependent density functional theory approximations for hybrid density functionals: Analytical gradients and parallelization
     J. Chem. Phys., 2011 134 054116
     doi.org/10.1063/1.3533441
  5. Helmich-Paris,B.; de Souza,B.; Neese,F.; Izsák,R.
     An improved chain of spheres for exchange algorithm
     J. Chem. Phys., 2021 155 104109
     doi.org/doi: 10.1063/5.0058766.
  6. Neese,F.
     The SHARK Integral Generation and Digestion System
     J. Comp. Chem., 2022  1-16
     doi.org/10.1002/jcc.26942
  7. Lehtola,S.; Steigemann,C.; Oliveira,M.; Marques,M.
     Recent developments in Libxc - A comprehensive library of functionals for density functional theory
     Software X, 2018 7 
     doi.org/10.1016/j.softx.2017.11.002
  8. Grimme,S.; Antony,J.; Ehrlich,S.; Krieg,H.
     A consistent and accurate ab initio parametrization of density functional dispersion correction (DFT-D) for the 94 elements H-Pu
     J. Chem. Phys., 2010 132 154104-XXXX
     doi.org/10.1063/1.3382344
  9. Grimme,S.; Ehrlich,S.; Goerigk,L.
     Effect of the damping function in dispersion corrected density functional theory
     J. Comput. Chem., 2011 32(7)1456-1465
     doi.org/10.1002/jcc.21759

List of suggested additional citations. These are papers that are important in the 'surrounding' of 
of this run, or papers that preceded the highly important papers. If you like your results we are grateful for a citation.

  1. Izsak,R.; Neese,F.
     An overlap fitted chain of spheres exchange method
     J. Chem. Phys., 2011 135 144105
     doi.org/10.1063/1.3646921
  2. Izsak,R.; Hansen,A.; Neese,F.
     The resolution of identity and chain of spheres approximations for the LPNO-CCSD singles Fock term
     Molec. Phys., 2012 110 2413-2417
     doi.org/10.1080/00268976.2012.687466
  3. Neese,F.
     The ORCA program system
     WIRES Comput. Molec. Sci., 2012 2(1)73-78
     doi.org/10.1002/wcms.81
  4. Izsak,R.; Neese,F.; Klopper,W.
     Robust fitting techniques in the chain of spheres approximation to the Fock exchange: The role of the complementary space
     J. Chem. Phys., 2013 139 
     doi.org/10.1063/1.4819264
  5. Neese,F.
     Software update: the ORCA program system, version 4.0
     WIRES Comput. Molec. Sci., 2018 8(1)1-6
     doi.org/10.1002/wcms.1327
  6. Neese,F.; Wennmohs,F.; Becker,U.; Riplinger,C.
     The ORCA quantum chemistry program package
     J. Chem. Phys., 2020 152 Art. No. L224108
     doi.org/10.1063/5.0004608

List of optional additional citations

  1. Neese,F.
     Approximate second-order SCF convergence for spin unrestricted wavefunctions
     Chem. Phys. Lett., 2000 325(1-3)93-98
     doi.org/10.1016/s0009-2614(00)00662-x

Timings for individual modules:

Sum of individual times          ...       25.001 sec (=   0.417 min)
Startup calculation              ...        2.372 sec (=   0.040 min)   9.5 %
SCF iterations                   ...       10.277 sec (=   0.171 min)  41.1 %
Property integrals               ...        2.128 sec (=   0.035 min)   8.5 %
Property calculations            ...        2.099 sec (=   0.035 min)   8.4 %
CIS module                       ...        8.125 sec (=   0.135 min)  32.5 %
                             ****ORCA TERMINATED NORMALLY****
TOTAL RUN TIME: 0 days 0 hours 0 minutes 27 seconds 79 msec
