7
Properties=species:S:1:pos:R:3:momenta:R:3:forces:R:3 Coordinates=T from=T ORCA-job=T orca=T E=T -153.825440110646=T energy=-4183.241903723297 free_energy=-4183.241903723297 stress="-7.3382485459778645e-06 -1.3802761714635825e-05 4.627710274411388e-07 -1.3802761714635825e-05 -2.1458286555196377e-05 1.0939563535463146e-06 4.627710274411388e-07 1.0939563535463146e-06 4.862825238525779e-07" pbc="F F F"
O        0.30931838       1.00706122      -0.00381168       1.17801545       1.61976328      -0.08576342       1.69780521       2.46683365      -0.08208463
C        0.63407328      -0.32883331       0.00192444      -0.08704591      -0.59748394      -0.01366255      -0.69297185      -0.25657823      -0.25014391
C       -0.76159895      -0.71561178      -0.00186420      -1.02090325      -1.31486737       0.07370332      -1.01232506      -2.58837178      -0.00473840
H        1.20870348      -0.57268505       0.89628272       0.02991028       0.20307879       0.02967051       0.18715115       0.01128699       0.03633199
H        1.21978871      -0.60775965      -0.88668296       0.09505129       0.09583026       0.05060859       0.04644908       0.22998068       0.17323643
H       -1.31846462      -0.69552384      -0.92257560      -0.21337584       0.05726294      -0.02696790      -0.00035586       0.07649700       0.04985369
H       -1.27949298      -0.71230337       0.93499743       0.01834798      -0.06358397      -0.02758854      -0.22575267       0.06035169       0.07754483
