
                                 *****************
                                 * O   R   C   A *
                                 *****************

                                            #,                                       
                                            ###                                      
                                            ####                                     
                                            #####                                    
                                            ######                                   
                                           ########,                                 
                                     ,,################,,,,,                         
                               ,,#################################,,                 
                          ,,##########################################,,             
                       ,#########################################, ''#####,          
                    ,#############################################,,   '####,        
                  ,##################################################,,,,####,       
                ,###########''''           ''''###############################       
              ,#####''   ,,,,##########,,,,          '''####'''          '####       
            ,##' ,,,,###########################,,,                        '##       
           ' ,,###''''                  '''############,,,                           
         ,,##''                                '''############,,,,        ,,,,,,###''
      ,#''                                            '''#######################'''  
     '                                                          ''''####''''         
             ,#######,   #######,   ,#######,      ##                                
            ,#'     '#,  ##    ##  ,#'     '#,    #''#        ,####,   ,####,        
            ##       ##  ##   ,#'  ##            #'  '#       #'       #'  '#        
            ##       ##  #######   ##           ,######,      #####,   #    #        
            '#,     ,#'  ##    ##  '#,     ,#' ,#      #,     #,   #   #,  ,#        
             '#######'   ##     ##  '#######'  #'      '#     '####' # '####'        



                #########################################################
                #                        -***-                          #
                #          Department of theory and spectroscopy        #
                #                                                       #
                #                      Frank Neese                      #
                #                                                       #
                #     Directorship, Architecture, Infrastructure        #
                #                    SHARK, DRIVERS                     #
                #        Core code/Algorithms in most modules           #
                #                                                       #
                #        Max Planck Institute fuer Kohlenforschung      #
                #                Kaiser Wilhelm Platz 1                 #
                #                 D-45470 Muelheim/Ruhr                 #
                #                      Germany                          #
                #                                                       #
                #                  All rights reserved                  #
                #                        -***-                          #
                #########################################################


                         Program Version 6.0.0  -   RELEASE  -


 With contributions from (in alphabetic order):
   Daniel Aravena         : Magnetic Suceptibility
   Michael Atanasov       : Ab Initio Ligand Field Theory (pilot matlab implementation)
   Alexander A. Auer      : GIAO ZORA, VPT2 properties, NMR spectrum
   Ute Becker             : All parallelization in ORCA, NUMFREQ, NUMCALC
   Giovanni Bistoni       : ED, misc. LED, open-shell LED, HFLD
   Martin Brehm           : Molecular dynamics
   Dmytro Bykov           : pre 5.0 version of the SCF Hessian
   Marcos Casanova-Páez   : Triplet and SCS-CIS(D). UHF-(DLPNO)-IP/EA/STEOM-CCSD. UHF-CVS-IP/STEOM-CCSD
   Vijay G. Chilkuri      : MRCI spin determinant printing, contributions to CSF-ICE
   Pauline Colinet        : FMM embedding
   Dipayan Datta          : RHF DLPNO-CCSD density
   Achintya Kumar Dutta   : EOM-CC, STEOM-CC
   Nicolas Foglia         : Exact transition moments, OPA infrastructure, MCD improvements
   Dmitry Ganyushin       : Spin-Orbit,Spin-Spin,Magnetic field MRCI
   Miquel Garcia          : C-PCM and meta-GGA Hessian, CCSD/C-PCM, Gaussian charge scheme
   Tiago L. C. Gouveia    : GS-ROHF, GS-ROCIS
   Yang Guo               : DLPNO-NEVPT2, F12-NEVPT2, CIM, IAO-localization
   Andreas Hansen         : Spin unrestricted coupled pair/coupled cluster methods
   Ingolf Harden          : AUTO-CI MPn and infrastructure 
   Benjamin Helmich-Paris : MC-RPA, TRAH-(SCF,CASSCF), AVAS, COSX integrals, SCF dyn. polar.
   Lee Huntington         : MR-EOM, pCC
   Robert Izsak           : Overlap fitted RIJCOSX, COSX-SCS-MP3, EOM
   Riya Kayal             : Wick's Theorem for AUTO-CI, AUTO-CI UHF-CCSDT
   Emily Kempfer          : AUTO-CI, RHF CISDT and CCSDT
   Christian Kollmar      : KDIIS, OOCD, Brueckner-CCSD(T), CCSD density, CASPT2, CASPT2-K, improved NEVPT2
   Axel Koslowski         : Symmetry handling
   Simone Kossmann        : Meta GGA functionals, TD-DFT gradient, OOMP2, (MP2 Hessian; deprecated post 5.0)
   Lucas Lang             : DCDCAS
   Marvin Lechner         : AUTO-CI (C++ implementation), FIC-MRCC
   Spencer Leger          : CASSCF response
   Dagmar Lenk            : GEPOL surface, SMD, ORCA-2-JSON
   Dimitrios Liakos       : Extrapolation schemes; Compound Job, initial MDCI parallelization
   Dimitrios Manganas     : Further ROCIS development; embedding schemes. LFT, Crystal Embedding
   Dimitrios Pantazis     : SARC Basis sets
   Anastasios Papadopoulos: AUTO-CI, single reference methods and gradients
   Taras Petrenko         : pre 6.0 DFT Hessian and TD-DFT gradient, (ASA, deprecated), ECA, 1-Electron XAS/XES, NRVS
   Peter Pinski           : DLPNO-MP2, DLPNO-MP2 Gradient
   Christoph Reimann      : Effective Core Potentials
   Marius Retegan         : Local ZFS, SOC
   Christoph Riplinger    : Optimizer, TS searches, QM/MM, DLPNO-CCSD(T), (RO)-DLPNO pert. Triples
   Michael Roemelt        : Original ROCIS implementation
   Masaaki Saitow         : Open-shell DLPNO-CCSD energy and density
   Barbara Sandhoefer     : DKH picture change effects
   Kantharuban Sivalingam : CASSCF convergence/infrastructure, NEVPT2 and variants, FIC-MRCI
   Bernardo de Souza      : ESD, SOC TD-DFT
   Georgi Stoychev        : AutoAux, RI-MP2 NMR, DLPNO-MP2 response, X2C
   Van Anh Tran           : RI-MP2 g-tensors
   Willem Van den Heuvel  : Paramagnetic NMR
   Zikuan Wang            : NOTCH, Electric field optimization 
   Frank Wennmohs         : Technical directorship and infrastructure
   Hang Xu                : AUTO-CI-Response properties 


 We gratefully acknowledge several colleagues who have allowed us to
 interface, adapt or use parts of their codes:
   Stefan Grimme, W. Hujo, H. Kruse, P. Pracht,  : VdW corrections, initial TS optimization,
                  C. Bannwarth, S. Ehlert,         DFT functionals, gCP, sTDA/sTD-DF
                  L. Wittmann, M. Mueller
   Ed Valeev, F. Pavosevic, A. Kumar             : LibInt (2-el integral package), F12 methods
   Garnet Chan, S. Sharma, J. Yang, R. Olivares  : DMRG
   Ulf Ekstrom                                   : XCFun DFT Library
   Mihaly Kallay                                 : mrcc  (arbitrary order and MRCC methods)
   Frank Weinhold                                : gennbo (NPA and NBO analysis)
   Simon Mueller                                 : openCOSMO-RS
   Christopher J. Cramer and Donald G. Truhlar   : smd solvation model
   Lars Goerigk                                  : TD-DFT with DH, B97 family of functionals
   V. Asgeirsson, H. Jonsson                     : NEB implementation
   FAccTs GmbH                                   : IRC, NEB, NEB-TS, DLPNO-Multilevel, CI-OPT
                                                   MM, QMMM, 2- and 3-layer-ONIOM, Crystal-QMMM,
                                                   LR-CPCM, SF, NACMEs, symmetry and pop. for TD-DFT,
                                                   nearIR, NL-DFT gradient (VV10), updates on ESD,
                                                   ML-optimized integration grids, MBIS, APM,
                                                   GOAT, DOCKER, SOLVATOR, interface openCOSMO-RS
   S Lehtola, MJT Oliveira, MAL Marques          : LibXC Library
   Liviu Ungur et al                             : ANISO software


 Your calculation uses the libint2 library for the computation of 2-el integrals
 For citations please refer to: http://libint.valeyev.net

 Your ORCA version has been built with support for libXC version: 6.2.2
 For citations please refer to: https://libxc.gitlab.io

 This ORCA versions uses:
   CBLAS   interface :  Fast vector & matrix operations
   LAPACKE interface :  Fast linear algebra routines
   SCALAPACK package :  Parallel linear algebra routines
   Shared memory     :  Shared parallel matrices
   BLAS/LAPACK       :  OpenBLAS 0.3.27  USE64BITINT DYNAMIC_ARCH NO_AFFINITY Zen SINGLE_THREADED
        Core in use  :  Zen
   Copyright (c) 2011-2014, The OpenBLAS Project


Your calculation utilizes the atom-pairwise dispersion correction
with the Becke-Johnson damping scheme (D3BJ)


Warning: RI is on but no J-basis has been assigned. Assigning Def2/J (nothing to worry about!)
================================================================================

----- Orbital basis set information -----
Your calculation utilizes the basis: def2-TZVPPD
   F. Weigend and R. Ahlrichs, Phys. Chem. Chem. Phys. 7, 3297 (2005).
   D. Rappoport and F. Furche, J. Chem. Phys. 133, 134105 (2010)
   D. Rappoport, J. Chem. Phys. 155, 124102 (2021).

----- AuxJ basis set information -----
Your calculation utilizes the auxiliary basis: def2/J
   F. Weigend, Phys. Chem. Chem. Phys. 8, 1057 (2006).

================================================================================
                                        WARNINGS
                       Please study these warnings very carefully!
================================================================================

Using LibXC functional ID 531 : wB97M-V exchange-correlation functional
[ 1]  N. Mardirossian and M. Head-Gordon.,  J. Chem. Phys. 144, 214110 (2016)
Using LibXC functional ID 531 : wB97M-V exchange-correlation functional
[ 1]  N. Mardirossian and M. Head-Gordon.,  J. Chem. Phys. 144, 214110 (2016)

WARNING: B97M-V or wB97M-V functional requested.
  ===> : libXC variant has now been activated.
         Any manually given DFX/HFX/RangeSep scaling parameters are IGNORED!

Your calculation utilizes LibXC
 by S Lehtola, C Steigemann, MJT Oliveira & MAL Marques
Please cite in your paper:
 S Lehtola, C Steigemann, MJT Oliveira & MAL Marques, SoftwareX, 7, (2018), 1.
   


WARNING: your system is open-shell and RHF/RKS was chosen
  ===> : WILL SWITCH to UHF/UKS

INFO   : Checking CIS options ...

WARNING: CIS/ROCIS methods need fully converged wavefunctions
  ===> : Setting SCFConvForced true
         You can overwrite this default with %scf ConvForced false 


================================================================================
                                       INPUT FILE
================================================================================
NAME = orca.inp
|  1> ! Engrad wB97M-D3BJ def2-TZVPPD 
|  2> %pal nprocs 8 end%pal nprocs 16 end 
|  3> %tddft nroots 2 Iroot 2
|  4>  sf true 
|  5> end 
|  6> *xyz 0 3 
|  7> O   1.5809124202213 0.98113110813638 -0.04220413213917
|  8> C   0.95978637926085 -0.01204021529837 0.21296972271874
|  9> C   -0.30799406392862 -0.6732524455381 -0.23336576250298
| 10> H   1.40979477365274 -0.66563685272446 1.00050777833198
| 11> H   -0.04156554408878 -1.67009522363837 -0.58340089971781
| 12> H   -0.85477550898554 -0.13767203420002 -1.00612376260264
| 13> H   -0.93121809487148 -0.79771858315405 0.65161705591189
| 14> *
| 15> 
| 16>                          ****END OF INPUT****
================================================================================

                     *******************************
                     * Energy+Gradient Calculation *
                     *******************************

---------------------------------
CARTESIAN COORDINATES (ANGSTROEM)
---------------------------------
  O      1.580912    0.981131   -0.042204
  C      0.959786   -0.012040    0.212970
  C     -0.307994   -0.673252   -0.233366
  H      1.409795   -0.665637    1.000508
  H     -0.041566   -1.670095   -0.583401
  H     -0.854776   -0.137672   -1.006124
  H     -0.931218   -0.797719    0.651617

----------------------------
CARTESIAN COORDINATES (A.U.)
----------------------------
  NO LB      ZA    FRAG     MASS         X           Y           Z
   0 O     8.0000    0    15.999    2.987492    1.854069   -0.079754
   1 C     6.0000    0    12.011    1.813733   -0.022753    0.402454
   2 C     6.0000    0    12.011   -0.582024   -1.272263   -0.440997
   3 H     1.0000    0     1.008    2.664126   -1.257871    1.890686
   4 H     1.0000    0     1.008   -0.078547   -3.156023   -1.102468
   5 H     1.0000    0     1.008   -1.615292   -0.260162   -1.901298
   6 H     1.0000    0     1.008   -1.759747   -1.507470    1.231378

--------------------------------
INTERNAL COORDINATES (ANGSTROEM)
--------------------------------
 O      0   0   0     0.000000000000     0.00000000     0.00000000
 C      1   0   0     1.198874694309     0.00000000     0.00000000
 C      2   1   0     1.497893264195   137.79660684     0.00000000
 H      2   1   3     1.117994771239   115.19496711   180.00562484
 H      3   2   1     1.089589040749   107.01499646   122.59930504
 H      3   2   1     1.087644819040   114.82381349   359.96392685
 H      3   2   1     1.089538710211   107.00940578   237.28536854

---------------------------
INTERNAL COORDINATES (A.U.)
---------------------------
 O      0   0   0     0.000000000000     0.00000000     0.00000000
 C      1   0   0     2.265544841133     0.00000000     0.00000000
 C      2   1   0     2.830608047174   137.79660684     0.00000000
 H      2   1   3     2.112703936797   115.19496711   180.00562484
 H      3   2   1     2.059024885537   107.01499646   122.59930504
 H      3   2   1     2.055350838965   114.82381349   359.96392685
 H      3   2   1     2.058929774604   107.00940578   237.28536854

---------------------
BASIS SET INFORMATION
---------------------
There are 3 groups of distinct atoms

 Group   1 Type O   : 12s7p3d1f contracted to 6s4p3d1f pattern {621111/4111/111/1}
 Group   2 Type C   : 12s6p3d1f contracted to 6s3p3d1f pattern {621111/411/111/1}
 Group   3 Type H   : 5s3p1d contracted to 3s3p1d pattern {311/111/1}

Atom   0O    basis set group =>   1
Atom   1C    basis set group =>   2
Atom   2C    basis set group =>   2
Atom   3H    basis set group =>   3
Atom   4H    basis set group =>   3
Atom   5H    basis set group =>   3
Atom   6H    basis set group =>   3
---------------------------------
AUXILIARY/J BASIS SET INFORMATION
---------------------------------
There are 3 groups of distinct atoms

 Group   1 Type O   : 12s5p4d2f1g contracted to 6s4p3d1f1g pattern {711111/2111/211/2/1}
 Group   2 Type C   : 12s5p4d2f1g contracted to 6s4p3d1f1g pattern {711111/2111/211/2/1}
 Group   3 Type H   : 5s2p1d contracted to 3s1p1d pattern {311/2/1}

Atom   0O    basis set group =>   1
Atom   1C    basis set group =>   2
Atom   2C    basis set group =>   2
Atom   3H    basis set group =>   3
Atom   4H    basis set group =>   3
Atom   5H    basis set group =>   3
Atom   6H    basis set group =>   3
[1739831724.892499] [ohm:3897849:0]        ib_iface.c:1059 UCX  ERROR ibv_create_cq(cqe=256) failed: Connection timed out
[1739831724.892500] [ohm:3897851:0]        ib_iface.c:1059 UCX  ERROR ibv_create_cq(cqe=256) failed: Connection timed out
[1739831724.925613] [ohm:3897848:0]        ib_iface.c:1059 UCX  ERROR ibv_create_cq(cqe=256) failed: Connection timed out
[1739831724.925610] [ohm:3897850:0]        ib_iface.c:1059 UCX  ERROR ibv_create_cq(cqe=256) failed: Connection timed out
[1739831724.925866] [ohm:3897846:0]        ib_iface.c:1059 UCX  ERROR ibv_create_cq(cqe=256) failed: Connection timed out
[1739831724.931158] [ohm:3897853:0]        ib_iface.c:1059 UCX  ERROR ibv_create_cq(cqe=256) failed: Connection timed out
[1739831724.932256] [ohm:3897847:0]        ib_iface.c:1059 UCX  ERROR ibv_create_cq(cqe=256) failed: Connection timed out
[1739831724.939507] [ohm:3897856:0]        ib_iface.c:1059 UCX  ERROR ibv_create_cq(cqe=256) failed: Connection timed out
[1739831724.957460] [ohm:3897868:0]        ib_iface.c:1059 UCX  ERROR ibv_create_cq(cqe=256) failed: Connection timed out
[1739831724.957484] [ohm:3897875:0]        ib_iface.c:1059 UCX  ERROR ibv_create_cq(cqe=256) failed: Connection timed out
[1739831724.958156] [ohm:3897862:0]        ib_iface.c:1059 UCX  ERROR ibv_create_cq(cqe=256) failed: Connection timed out
[1739831724.958148] [ohm:3897852:0]        ib_iface.c:1059 UCX  ERROR ibv_create_cq(cqe=256) failed: Connection timed out
[1739831724.958319] [ohm:3897859:0]        ib_iface.c:1059 UCX  ERROR ibv_create_cq(cqe=256) failed: Connection timed out
[1739831724.958336] [ohm:3897854:0]        ib_iface.c:1059 UCX  ERROR ibv_create_cq(cqe=256) failed: Connection timed out
[1739831724.958333] [ohm:3897858:0]        ib_iface.c:1059 UCX  ERROR ibv_create_cq(cqe=256) failed: Connection timed out
[1739831724.959131] [ohm:3897873:0]        ib_iface.c:1059 UCX  ERROR ibv_create_cq(cqe=256) failed: Connection timed out


           ************************************************************
           *        Program running with 16 parallel MPI-processes    *
           *              working on a common directory               *
           ************************************************************
------------------------------------------------------------------------------
                             ORCA STARTUP CALCULATIONS
                           -- RI-GTO INTEGRALS CHOSEN --
------------------------------------------------------------------------------
------------------------------------------------------------------------------
                   ___                                                        
                  /   \      - P O W E R E D   B Y -                         
                 /     \                                                     
                 |  |  |   _    _      __       _____    __    __             
                 |  |  |  | |  | |    /  \     |  _  \  |  |  /  |          
                  \  \/   | |  | |   /    \    | | | |  |  | /  /          
                 / \  \   | |__| |  /  /\  \   | |_| |  |  |/  /          
                |  |  |   |  __  | /  /__\  \  |    /   |      \           
                |  |  |   | |  | | |   __   |  |    \   |  |\   \          
                \     /   | |  | | |  |  |  |  | |\  \  |  | \   \       
                 \___/    |_|  |_| |__|  |__|  |_| \__\ |__|  \__/        
                                                                              
                      - O R C A' S   B I G   F R I E N D -                    
                                      &                                       
                       - I N T E G R A L  F E E D E R -                       
                                                                              
 v1 FN, 2020, v2 2021, v3 2022-2024                                           
------------------------------------------------------------------------------


----------------------
SHARK INTEGRAL PACKAGE
----------------------

Number of atoms                             ...      7
Number of basis functions                   ...    182
Number of shells                            ...     68
Maximum angular momentum                    ...      3
Integral batch strategy                     ... SHARK/LIBINT Hybrid
RI-J (if used) integral strategy            ... SPLIT-RIJ (Revised 2003 algorithm where possible)
Printlevel                                  ...      1
Contraction scheme used                     ... SEGMENTED contraction
Prescreening option                         ... SCHWARTZ
   Thresh                                   ... 2.500e-11
   Tcut                                     ... 2.500e-12
   Tpresel                                  ... 2.500e-12 
Coulomb Range Separation                    ... NOT USED
Exchange Range Separation                   ... Long Range
   Mu parameter                             ... 3.000e-01
   Scaling (regular/separated)              ... 1.500e-01 8.500e-01
Multipole approximations                    ... NOT USED
Finite Nucleus Model                        ... NOT USED
CABS basis                                  ... NOT available
Auxiliary Coulomb fitting basis             ... AVAILABLE
   # of basis functions in Aux-J            ...    191
   # of shells in Aux-J                     ...     65
   Maximum angular momentum in Aux-J        ...      4
Auxiliary J/K fitting basis                 ... NOT available
Auxiliary Correlation fitting basis         ... NOT available
Auxiliary 'external' fitting basis          ... NOT available

Checking pre-screening integrals            ... done (  0.0 sec) Dimension = 68
Check shell pair data                       ... done (  0.0 sec)
Shell pair information
Shell pair cut-off parameter TPreSel        ...   2.5e-12
Total number of shell pairs                 ...      2346
Shell pairs after pre-screening             ...      2321
Total number of primitive shell pairs       ...      5434
Primitive shell pairs kept                  ...      4799
          la=0 lb=0:    453 shell pairs
          la=1 lb=0:    653 shell pairs
          la=1 lb=1:    253 shell pairs
          la=2 lb=0:    384 shell pairs
          la=2 lb=1:    286 shell pairs
          la=2 lb=2:     91 shell pairs
          la=3 lb=0:     90 shell pairs
          la=3 lb=1:     66 shell pairs
          la=3 lb=2:     39 shell pairs
          la=3 lb=3:      6 shell pairs

Calculating one electron integrals          ... done (  0.0 sec)
Calculating RI/J V-Matrix + Cholesky decomp.... done (  0.0 sec)
Calculating Nuclear repulsion               ... done (  0.0 sec) ENN=     69.408701664039 Eh

Diagonalization of the overlap matrix:
Smallest eigenvalue                        ... 1.338e-05
Time for diagonalization                   ...    0.003 sec
Threshold for overlap eigenvalues          ... 1.000e-07
Number of eigenvalues below threshold      ... 0
Time for construction of square roots      ...    0.002 sec
Total time needed                          ...    0.005 sec

-------------------
DFT GRID GENERATION
-------------------

General Integration Accuracy     IntAcc      ... 4.388
Radial Grid Type                 RadialGrid  ... OptM3 with GC (2021)
Angular Grid (max. ang.)         AngularGrid ... 4 (Lebedev-302)
Angular grid pruning method      GridPruning ... 4 (adaptive)
Weight generation scheme         WeightScheme... mBecke (2022)
Basis function cutoff            BFCut       ... 1.0000e-11
Integration weight cutoff        WCut        ... 1.0000e-14
Partially contracted basis set               ... off
Rotationally invariant grid construction     ... off
Angular grids for H and He will be reduced by one unit
Diffuse basis detected: some atoms will have their outermost
                        angular grid increased by 1.

Total number of grid points                  ...    33150
Total number of batches                      ...      522
Average number of points per batch           ...       63
Average number of grid points per atom       ...     4736

--------------------
COSX GRID GENERATION
--------------------

GRIDX 1
-------
General Integration Accuracy     IntAcc      ... 3.816
Radial Grid Type                 RadialGrid  ... OptM3 with GC (2021)
Angular Grid (max. ang.)         AngularGrid ... 1 (Lebedev-50)
Angular grid pruning method      GridPruning ... 4 (adaptive)
Weight generation scheme         WeightScheme... mBecke (2022)
Basis function cutoff            BFCut       ... 1.0000e-11
Integration weight cutoff        WCut        ... 1.0000e-14
Partially contracted basis set               ... on
Rotationally invariant grid construction     ... off
Angular grids for H and He will be reduced by one unit
Diffuse basis detected: some atoms will have their outermost
                        angular grid increased by 1.

Total number of grid points                  ...     4167
Total number of batches                      ...       36
Average number of points per batch           ...      115
Average number of grid points per atom       ...      595
UseSFitting                                  ... on

GRIDX 2
-------
General Integration Accuracy     IntAcc      ... 4.020
Radial Grid Type                 RadialGrid  ... OptM3 with GC (2021)
Angular Grid (max. ang.)         AngularGrid ... 2 (Lebedev-110)
Angular grid pruning method      GridPruning ... 4 (adaptive)
Weight generation scheme         WeightScheme... mBecke (2022)
Basis function cutoff            BFCut       ... 1.0000e-11
Integration weight cutoff        WCut        ... 1.0000e-14
Partially contracted basis set               ... on
Rotationally invariant grid construction     ... off
Angular grids for H and He will be reduced by one unit
Diffuse basis detected: some atoms will have their outermost
                        angular grid increased by 1.

Total number of grid points                  ...    10302
Total number of batches                      ...       84
Average number of points per batch           ...      122
Average number of grid points per atom       ...     1472
UseSFitting                                  ... on

GRIDX 3
-------
General Integration Accuracy     IntAcc      ... 4.338
Radial Grid Type                 RadialGrid  ... OptM3 with GC (2021)
Angular Grid (max. ang.)         AngularGrid ... 3 (Lebedev-194)
Angular grid pruning method      GridPruning ... 4 (adaptive)
Weight generation scheme         WeightScheme... mBecke (2022)
Basis function cutoff            BFCut       ... 1.0000e-11
Integration weight cutoff        WCut        ... 1.0000e-14
Partially contracted basis set               ... on
Rotationally invariant grid construction     ... off
Angular grids for H and He will be reduced by one unit
Diffuse basis detected: some atoms will have their outermost
                        angular grid increased by 1.

Total number of grid points                  ...    23127
Total number of batches                      ...      184
Average number of points per batch           ...      125
Average number of grid points per atom       ...     3304
UseSFitting                                  ... on
Initializing property integral containers    ... done (  0.0 sec)

SHARK setup successfully completed in   0.3 seconds

Maximum memory used throughout the entire STARTUP-calculation: 13.8 MB
[1739831725.902810] [ohm:3897934:0]        ib_iface.c:1059 UCX  ERROR ibv_create_cq(cqe=256) failed: Connection timed out
[1739831725.909983] [ohm:3897932:0]        ib_iface.c:1059 UCX  ERROR ibv_create_cq(cqe=256) failed: Connection timed out
[1739831725.910227] [ohm:3897930:0]        ib_iface.c:1059 UCX  ERROR ibv_create_cq(cqe=256) failed: Connection timed out
[1739831725.912193] [ohm:3897931:0]        ib_iface.c:1059 UCX  ERROR ibv_create_cq(cqe=256) failed: Connection timed out
[1739831725.912245] [ohm:3897929:0]        ib_iface.c:1059 UCX  ERROR ibv_create_cq(cqe=256) failed: Connection timed out
[1739831725.912684] [ohm:3897933:0]        ib_iface.c:1059 UCX  ERROR ibv_create_cq(cqe=256) failed: Connection timed out
[1739831725.913313] [ohm:3897935:0]        ib_iface.c:1059 UCX  ERROR ibv_create_cq(cqe=256) failed: Connection timed out
[1739831725.913300] [ohm:3897937:0]        ib_iface.c:1059 UCX  ERROR ibv_create_cq(cqe=256) failed: Connection timed out
[1739831725.913857] [ohm:3897939:0]        ib_iface.c:1059 UCX  ERROR ibv_create_cq(cqe=256) failed: Connection timed out
[1739831725.915379] [ohm:3897936:0]        ib_iface.c:1059 UCX  ERROR ibv_create_cq(cqe=256) failed: Connection timed out
[1739831725.933157] [ohm:3897942:0]        ib_iface.c:1059 UCX  ERROR ibv_create_cq(cqe=256) failed: Connection timed out
[1739831725.940246] [ohm:3897941:0]        ib_iface.c:1059 UCX  ERROR ibv_create_cq(cqe=256) failed: Connection timed out
[1739831725.946543] [ohm:3897949:0]        ib_iface.c:1059 UCX  ERROR ibv_create_cq(cqe=256) failed: Connection timed out
[1739831725.946581] [ohm:3897957:0]        ib_iface.c:1059 UCX  ERROR ibv_create_cq(cqe=256) failed: Connection timed out
[1739831725.947671] [ohm:3897944:0]        ib_iface.c:1059 UCX  ERROR ibv_create_cq(cqe=256) failed: Connection timed out
[1739831725.947787] [ohm:3897955:0]        ib_iface.c:1059 UCX  ERROR ibv_create_cq(cqe=256) failed: Connection timed out


           ************************************************************
           *        Program running with 16 parallel MPI-processes    *
           *              working on a common directory               *
           ************************************************************
-------------------------------------------------------------------------------
                                 ORCA GUESS
                   Start orbitals & Density for SCF / CASSCF
-------------------------------------------------------------------------------

------------
SCF SETTINGS
------------
Hamiltonian:
 Density Functional     Method          .... DFT(GTOs)
  Functional kind                       .... Exchange-Correlation
  Functional name                       .... wB97M-V exchange-correlation functional
  Functional family                     .... Hybrid MGGA
  Functional refs                              
    [ 0] N. Mardirossian and M. Head-Gordon.,  J. Chem. Phys. 144, 214110 (2016), doi: 10.1063/1.4952647
  Fraction of HF Exchange (short range) .... 0.1500
  Fraction of HF Exchange (long range)  .... 1.0000
  Range separation parameter mu         .... 0.3000
  Functional external parameters        .... 17
    Parameter  0 _cx00      =  8.500000e-01 : u^00 coefficient for exchange
    Parameter  1 _cx01      =  1.007000e+00 : u^01 coefficient for exchange
    Parameter  2 _cx10      =  2.590000e-01 : u^10 coefficient for exchange
    Parameter  3 _css00     =  4.430000e-01 : u^00 coefficient for same-spin correlation
    Parameter  4 _css04     = -1.437000e+00 : u^04 coefficient for same-spin correlation
    Parameter  5 _css10     = -4.535000e+00 : u^10 coefficient for same-spin correlation
    Parameter  6 _css20     = -3.390000e+00 : u^20 coefficient for same-spin correlation
    Parameter  7 _css43     =  4.278000e+00 : u^43 coefficient for same-spin correlation
    Parameter  8 _cos00     =  1.000000e+00 : u^00 coefficient for opposite-spin correlation
    Parameter  9 _cos10     =  1.358000e+00 : u^10 coefficient for opposite-spin correlation
    Parameter 10 _cos20     =  2.924000e+00 : u^20 coefficient for opposite-spin correlation
    Parameter 11 _cos21     = -8.812000e+00 : u^21 coefficient for opposite-spin correlation
    Parameter 12 _cos60     = -1.390000e+00 : u^60 coefficient for opposite-spin correlation
    Parameter 13 _cos61     =  9.142000e+00 : u^61 coefficient for opposite-spin correlation
    Parameter 14 _alpha     =  1.000000e+00 : fraction of HF exchange
    Parameter 15 _beta      = -8.500000e-01 : fraction of short-range exchange
    Parameter 16 _omega     =  3.000000e-01 : range-separation constant
 Long-range corrected/Screened/Range-Separated Hybrid DFT is turned on
   Amount of maximum screened exact exchange              ....  0.850000
   Range separation parameter mu (erf(mu*r12)/r12)        ....  0.300000
 RI-approximation to the Coulomb term is turned on
   Number of AuxJ basis functions       .... 191
   RIJ-COSX (HFX calculated with COS-X)).... on


General Settings:
 Integral files         IntName         .... orca
 Hartree-Fock type      HFTyp           .... UHF
 Total Charge           Charge          ....    0
 Multiplicity           Mult            ....    3
 Number of Electrons    NEL             ....   24
 Basis Dimension        Dim             ....  182
 Nuclear Repulsion      ENuc            ....     69.4087016640 Eh

Convergence Acceleration:
 AO-DIIS                CNVDIIS         .... on
   Start iteration      DIISMaxIt       ....    12
   Startup error        DIISStart       ....  0.200000
   # of expansion vecs  DIISMaxEq       ....     5
   Bias factor          DIISBfac        ....   1.050
   Max. coefficient     DIISMaxC        ....  10.000
 MO-DIIS                CNVKDIIS        .... off
 Trust-Rad. Augm. Hess. CNVTRAH         .... auto
   Auto Start mean grad. ratio tolernc. ....  1.125000
   Auto Start start iteration           ....    50
   Auto Start num. interpolation iter.  ....    10
   Max. Number of Micro iterations      ....    24
   Max. Number of Macro iterations      .... Maxiter - #DIIS iter
   Number of Davidson start vectors     ....     2
   Converg. threshold    (grad. norm)   ....   1.000e-05
   Grad. Scal. Fac. for Micro threshold ....   0.100
   Minimum threshold for Micro iter.    ....   1.000e-02
   NR start threshold (gradient norm)   ....   1.000e-04
   Initial trust radius                 ....   0.400
   Minimum AH scaling param. (alpha)    ....   1.000
   Maximum AH scaling param. (alpha)    .... 1000.000
   Quad. conv. algorithm                .... NR
   White noise on init. David. guess    .... on
   Maximum white noise                  ....   0.010
   Pseudo random numbers                .... off
   Inactive MOs                         .... canonical
   Orbital update algorithm             .... Taylor
   Preconditioner                       .... Diag
   Full preconditioner red. dimension   ....   250
 SOSCF                  CNVSOSCF        .... on
   Start iteration      SOSCFMaxIt      ....   150
   Startup grad/error   SOSCFStart      ....  0.003300
   Hessian update       SOSCFHessUp     .... L-BFGS
 Level Shifting         CNVShift        .... on
   Level shift para.    LevelShift      ....    0.2500
   Turn off err/grad.   ShiftErr        ....    0.0010
 Zerner damping         CNVZerner       .... off
 Static damping         CNVDamp         .... on
   Fraction old density DampFac         ....    0.7000
   Max. Damping (<1)    DampMax         ....    0.9800
   Min. Damping (>=0)   DampMin         ....    0.0000
   Turn off err/grad.   DampErr         ....    0.1000

SCF Procedure:
 Maximum # iterations   MaxIter         ....   125
 SCF integral mode      SCFMode         .... Direct
   Integral package                     .... SHARK and LIBINT hybrid scheme
 Reset frequency        DirectResetFreq ....    20
 Integral Threshold     Thresh          ....  2.500e-11 Eh
 Primitive CutOff       TCut            ....  2.500e-12 Eh

Convergence Tolerance:
 Convergence Check Mode ConvCheckMode   .... Total+1el-Energy
 Convergence forced     ConvForced      .... 1
 Energy Change          TolE            ....  1.000e-08 Eh
 1-El. energy change                    ....  1.000e-05 Eh
 Orbital Gradient       TolG            ....  1.000e-05
 Orbital Rotation angle TolX            ....  1.000e-05
 DIIS Error             TolErr          ....  5.000e-07

------------------------------
INITIAL GUESS: MODEL POTENTIAL
------------------------------
Loading Hartree-Fock densities                     ... done
Calculating cut-offs                               ... done
Initializing the effective Hamiltonian             ... done
Setting up the integral package (SHARK)            ... done
Starting the Coulomb interaction                   ... done (   0.0 sec)
Making the grid                                    ... done (   0.0 sec)
Mapping shells                                     ... done
Starting the XC term evaluation                    ... done (   0.0 sec)
  promolecular density results
     # of electrons  =     23.998085349
     EX              =    -19.522388162
     EC              =     -0.771960662
     EX+EC           =    -20.294348824
Transforming the Hamiltonian                       ... done (   0.0 sec)
Diagonalizing the Hamiltonian                      ... done (   0.0 sec)
Back transforming the eigenvectors                 ... done (   0.0 sec)
Now organizing SCF variables                       ... done
                      ------------------
                      INITIAL GUESS DONE (   0.1 sec)
                      ------------------
             **** ENERGY FILE WAS UPDATED (orca.en.tmp) ****
Finished Guess after   0.5 sec
Maximum memory used throughout the entire GUESS-calculation: 9.7 MB
[1739831726.637775] [ohm:3898017:0]        ib_iface.c:1059 UCX  ERROR ibv_create_cq(cqe=256) failed: Connection timed out
[1739831726.640427] [ohm:3898013:0]        ib_iface.c:1059 UCX  ERROR ibv_create_cq(cqe=256) failed: Connection timed out
[1739831726.660056] [ohm:3898014:0]        ib_iface.c:1059 UCX  ERROR ibv_create_cq(cqe=256) failed: Connection timed out
[1739831726.665451] [ohm:3898020:0]        ib_iface.c:1059 UCX  ERROR ibv_create_cq(cqe=256) failed: Connection timed out
[1739831726.666029] [ohm:3898016:0]        ib_iface.c:1059 UCX  ERROR ibv_create_cq(cqe=256) failed: Connection timed out
[1739831726.679731] [ohm:3898019:0]        ib_iface.c:1059 UCX  ERROR ibv_create_cq(cqe=256) failed: Connection timed out
[1739831726.679841] [ohm:3898015:0]        ib_iface.c:1059 UCX  ERROR ibv_create_cq(cqe=256) failed: Connection timed out
[1739831726.686239] [ohm:3898018:0]        ib_iface.c:1059 UCX  ERROR ibv_create_cq(cqe=256) failed: Connection timed out
[1739831726.688256] [ohm:3898026:0]        ib_iface.c:1059 UCX  ERROR ibv_create_cq(cqe=256) failed: Connection timed out
[1739831726.689214] [ohm:3898023:0]        ib_iface.c:1059 UCX  ERROR ibv_create_cq(cqe=256) failed: Connection timed out
[1739831726.691037] [ohm:3898033:0]        ib_iface.c:1059 UCX  ERROR ibv_create_cq(cqe=256) failed: Connection timed out
[1739831726.691448] [ohm:3898028:0]        ib_iface.c:1059 UCX  ERROR ibv_create_cq(cqe=256) failed: Connection timed out
[1739831726.691472] [ohm:3898021:0]        ib_iface.c:1059 UCX  ERROR ibv_create_cq(cqe=256) failed: Connection timed out
[1739831726.692619] [ohm:3898025:0]        ib_iface.c:1059 UCX  ERROR ibv_create_cq(cqe=256) failed: Connection timed out
[1739831726.716604] [ohm:3898037:0]        ib_iface.c:1059 UCX  ERROR ibv_create_cq(cqe=256) failed: Connection timed out
[1739831726.718763] [ohm:3898042:0]        ib_iface.c:1059 UCX  ERROR ibv_create_cq(cqe=256) failed: Connection timed out


           ************************************************************
           *        Program running with 16 parallel MPI-processes    *
           *              working on a common directory               *
           ************************************************************

-------------------------------------------------------------------------------------------
                                      ORCA LEAN-SCF
                              memory conserving SCF solver
-------------------------------------------------------------------------------------------

----------------------------------------D-I-I-S--------------------------------------------
Iteration    Energy (Eh)           Delta-E    RMSDP     MaxDP     DIISErr   Damp  Time(sec)
-------------------------------------------------------------------------------------------
               ***  Starting incremental Fock matrix formation  ***
    1    -153.6907216023111005     0.00e+00  1.01e-03  2.69e-02  8.03e-02  0.700   0.4
    2    -153.7236085672773811    -3.29e-02  9.29e-04  2.56e-02  4.88e-02  0.700   0.3
                               ***Turning on AO-DIIS***
    3    -153.7411586172140119    -1.76e-02  7.13e-04  2.17e-02  2.56e-02  0.700   0.3
    4    -153.7517976250009610    -1.06e-02  1.70e-03  5.08e-02  1.87e-02  0.000   0.3
    5    -153.7757732986544852    -2.40e-02  1.26e-04  4.49e-03  4.11e-03  0.000   0.3
                              *** Initializing SOSCF ***
---------------------------------------S-O-S-C-F--------------------------------------
Iteration    Energy (Eh)           Delta-E    RMSDP     MaxDP     MaxGrad    Time(sec)
--------------------------------------------------------------------------------------
    6    -153.7761830385298936    -4.10e-04  8.02e-05  2.17e-03  2.81e-03     0.3
               *** Restarting incremental Fock matrix formation ***
    7    -153.7764079628555578    -2.25e-04  6.57e-05  1.66e-03  4.39e-03     0.4
    8    -153.7765165355043564    -1.09e-04  9.30e-05  1.86e-03  1.89e-03     0.3
    9    -153.7766038332715652    -8.73e-05  2.12e-05  5.72e-04  3.19e-04     0.4
   10    -153.7766058602104522    -2.03e-06  1.69e-05  5.73e-04  1.35e-04     0.3
   11    -153.7766063524324522    -4.92e-07  4.18e-06  1.49e-04  4.81e-05     0.3
   12    -153.7766064159072243    -6.35e-08  1.75e-06  1.14e-04  1.30e-05     0.3
   13    -153.7766064234438659    -7.54e-09  5.79e-07  1.69e-05  6.54e-06     0.3
                 **** Energy Check signals convergence ****

               *****************************************************
               *                     SUCCESS                       *
               *           SCF CONVERGED AFTER  13 CYCLES          *
               *****************************************************

Recomputing exchange energy using gridx3       ... done (    0.424 sec)
Old exchange energy                            :     -6.201615463 Eh
New exchange energy                            :     -6.201624996 Eh
Exchange energy change after final integration :     -0.000009533 Eh
Total energy after final integration           :   -153.776615957 Eh
             **** ENERGY FILE WAS UPDATED (orca.en.tmp) ****

----------------
TOTAL SCF ENERGY
----------------

Total Energy       :       -153.77661595688335 Eh           -4184.47445 eV

Components:
Nuclear Repulsion  :         69.40870166403947 Eh            1888.70679 eV
Electronic Energy  :       -223.18530808748335 Eh           -6073.18099 eV
One Electron Energy:       -345.12164998321055 Eh           -9391.23754 eV
Two Electron Energy:        121.93634189572720 Eh            3318.05655 eV

Virial components:
Potential Energy   :       -307.36454252256277 Eh           -8363.81441 eV
Kinetic Energy     :        153.58792656567942 Eh            4179.33996 eV
Virial Ratio       :          2.00122854312460

DFT components:
N(Alpha)           :       12.999999490846 electrons
N(Beta)            :       11.000001296957 electrons
N(Total)           :       24.000000787803 electrons
E(XC)              :      -14.754147441969 Eh       

---------------
SCF CONVERGENCE
---------------

  Last Energy change         ...    7.5366e-09  Tolerance :   1.0000e-08
  Last MAX-Density change    ...    1.6897e-05  Tolerance :   1.0000e-07
  Last RMS-Density change    ...    5.7922e-07  Tolerance :   5.0000e-09
  Last DIIS Error            ...    2.8068e-03  Tolerance :   5.0000e-07
  Last Orbital Gradient      ...    6.5409e-06  Tolerance :   1.0000e-05
  Last Orbital Rotation      ...    2.2688e-05  Tolerance :   1.0000e-05


----------------------
UHF SPIN CONTAMINATION
----------------------

Warning: in a DFT calculation there is little theoretical justification to 
         calculate <S**2> as in Hartree-Fock theory. We will do it anyways
         but you should keep in mind that the values have only limited relevance

Expectation value of <S**2>     :     2.006172
Ideal value S*(S+1) for S=1.0   :     2.000000
Deviation                       :     0.006172

----------------
ORBITAL ENERGIES
----------------
                 SPIN UP ORBITALS
  NO   OCC          E(Eh)            E(eV) 
   0   1.0000     -19.405773      -528.0579 
   1   1.0000     -10.380734      -282.4741 
   2   1.0000     -10.370697      -282.2010 
   3   1.0000      -1.242566       -33.8119 
   4   1.0000      -0.888720       -24.1833 
   5   1.0000      -0.715496       -19.4696 
   6   1.0000      -0.629234       -17.1223 
   7   1.0000      -0.589424       -16.0390 
   8   1.0000      -0.580464       -15.7952 
   9   1.0000      -0.517389       -14.0789 
  10   1.0000      -0.516739       -14.0612 
  11   1.0000      -0.424244       -11.5443 
  12   1.0000      -0.217229        -5.9111 
  13   0.0000       0.037929         1.0321 
  14   0.0000       0.059762         1.6262 
  15   0.0000       0.077579         2.1110 
  16   0.0000       0.087415         2.3787 
  17   0.0000       0.106255         2.8914 
  18   0.0000       0.127807         3.4778 
  19   0.0000       0.128654         3.5009 
  20   0.0000       0.132683         3.6105 
  21   0.0000       0.167828         4.5668 
  22   0.0000       0.183044         4.9809 
  23   0.0000       0.201532         5.4840 

                 SPIN DOWN ORBITALS
  NO   OCC          E(Eh)            E(eV) 
   0   1.0000     -19.378723      -527.3219 
   1   1.0000     -10.370481      -282.1951 
   2   1.0000     -10.368754      -282.1481 
   3   1.0000      -1.186646       -32.2903 
   4   1.0000      -0.869721       -23.6663 
   5   1.0000      -0.669580       -18.2202 
   6   1.0000      -0.585094       -15.9212 
   7   1.0000      -0.541957       -14.7474 
   8   1.0000      -0.535703       -14.5772 
   9   1.0000      -0.497455       -13.5364 
  10   1.0000      -0.471465       -12.8292 
  11   0.0000      -0.081748        -2.2245 
  12   0.0000       0.039029         1.0620 
  13   0.0000       0.059426         1.6171 
  14   0.0000       0.077152         2.0994 
  15   0.0000       0.084898         2.3102 
  16   0.0000       0.095027         2.5858 
  17   0.0000       0.106758         2.9050 
  18   0.0000       0.127764         3.4766 
  19   0.0000       0.128334         3.4921 
  20   0.0000       0.133405         3.6301 
  21   0.0000       0.167629         4.5614 
*Only the first 10 virtual orbitals were printed.

                    ********************************
                    * MULLIKEN POPULATION ANALYSIS *
                    ********************************

--------------------------------------------
MULLIKEN ATOMIC CHARGES AND SPIN POPULATIONS
--------------------------------------------
   0 O :   -0.326475    0.935754
   1 C :    0.016569    0.771472
   2 C :   -0.582944    0.108458
   3 H :    0.204295    0.114819
   4 H :    0.217578    0.030527
   5 H :    0.253267    0.008498
   6 H :    0.217711    0.030472
Sum of atomic charges         :    0.0000000
Sum of atomic spin populations:    2.0000000

-----------------------------------------------------
MULLIKEN REDUCED ORBITAL CHARGES AND SPIN POPULATIONS
-----------------------------------------------------
CHARGE
  0 O s       :     4.018270  s :     4.018270
      pz      :     1.440205  p :     4.251898
      px      :     1.382899
      py      :     1.428793
      dz2     :     0.004863  d :     0.054368
      dxz     :     0.007493
      dyz     :     0.013224
      dx2y2   :     0.018907
      dxy     :     0.009882
      f0      :     0.000205  f :     0.001939
      f+1     :     0.000106
      f-1     :     0.000254
      f+2     :     0.000133
      f-2     :     0.000335
      f+3     :     0.000328
      f-3     :     0.000578

  1 C s       :     3.261342  s :     3.261342
      pz      :     1.003942  p :     2.614507
      px      :     0.830116
      py      :     0.780448
      dz2     :     0.010103  d :     0.091430
      dxz     :     0.005078
      dyz     :     0.037026
      dx2y2   :     0.033118
      dxy     :     0.006104
      f0      :     0.001640  f :     0.016152
      f+1     :     0.001207
      f-1     :     0.001989
      f+2     :     0.001013
      f-2     :     0.002882
      f+3     :     0.002814
      f-3     :     0.004608

  2 C s       :     3.345024  s :     3.345024
      pz      :     1.161876  p :     3.156710
      px      :     0.883030
      py      :     1.111804
      dz2     :    -0.004772  d :     0.078632
      dxz     :     0.025086
      dyz     :     0.026659
      dx2y2   :     0.029255
      dxy     :     0.002404
      f0      :     0.000132  f :     0.002578
      f+1     :     0.000576
      f-1     :     0.000091
      f+2     :     0.000262
      f-2     :     0.000569
      f+3     :     0.000532
      f-3     :     0.000416

  3 H s       :     0.740726  s :     0.740726
      pz      :     0.019405  p :     0.051906
      px      :     0.013731
      py      :     0.018769
      dz2     :     0.000853  d :     0.003073
      dxz     :     0.000465
      dyz     :     0.000751
      dx2y2   :     0.000562
      dxy     :     0.000441

  4 H s       :     0.729544  s :     0.729544
      pz      :     0.014559  p :     0.050682
      px      :     0.007642
      py      :     0.028481
      dz2     :     0.000250  d :     0.002195
      dxz     :     0.000174
      dyz     :     0.000571
      dx2y2   :     0.000483
      dxy     :     0.000717

  5 H s       :     0.707003  s :     0.707003
      pz      :     0.018778  p :     0.037575
      px      :     0.011841
      py      :     0.006956
      dz2     :     0.000569  d :     0.002155
      dxz     :     0.000447
      dyz     :     0.000438
      dx2y2   :     0.000407
      dxy     :     0.000294

  6 H s       :     0.729362  s :     0.729362
      pz      :     0.014531  p :     0.050733
      px      :     0.017957
      py      :     0.018245
      dz2     :     0.000680  d :     0.002195
      dxz     :     0.000483
      dyz     :     0.000516
      dx2y2   :     0.000221
      dxy     :     0.000295


SPIN
  0 O s       :    -0.000592  s :    -0.000592
      pz      :     0.439399  p :     0.926575
      px      :     0.366218
      py      :     0.120958
      dz2     :     0.000821  d :     0.009936
      dxz     :     0.003061
      dyz     :     0.001176
      dx2y2   :     0.005027
      dxy     :    -0.000149
      f0      :     0.000006  f :    -0.000165
      f+1     :    -0.000022
      f-1     :    -0.000014
      f+2     :    -0.000015
      f-2     :    -0.000015
      f+3     :    -0.000103
      f-3     :    -0.000002

  1 C s       :    -0.009365  s :    -0.009365
      pz      :     0.356806  p :     0.704221
      px      :     0.183057
      py      :     0.164358
      dz2     :     0.012665  d :     0.076088
      dxz     :     0.000866
      dyz     :     0.027575
      dx2y2   :     0.016988
      dxy     :     0.017995
      f0      :     0.000053  f :     0.000528
      f+1     :     0.000247
      f-1     :    -0.000224
      f+2     :     0.000227
      f-2     :    -0.000118
      f+3     :    -0.000192
      f-3     :     0.000534

  2 C s       :     0.065696  s :     0.065696
      pz      :    -0.009758  p :     0.026857
      px      :     0.037548
      py      :    -0.000933
      dz2     :    -0.014664  d :     0.014884
      dxz     :     0.006192
      dyz     :     0.009422
      dx2y2   :     0.018760
      dxy     :    -0.004826
      f0      :     0.000041  f :     0.001020
      f+1     :     0.000368
      f-1     :     0.000025
      f+2     :    -0.000012
      f-2     :     0.000213
      f+3     :     0.000326
      f-3     :     0.000060

  3 H s       :     0.083973  s :     0.083973
      pz      :     0.015396  p :     0.029913
      px      :     0.006419
      py      :     0.008098
      dz2     :     0.000622  d :     0.000933
      dxz     :     0.000020
      dyz     :    -0.000005
      dx2y2   :     0.000040
      dxy     :     0.000256

  4 H s       :     0.022424  s :     0.022424
      pz      :     0.001214  p :     0.007930
      px      :     0.004833
      py      :     0.001883
      dz2     :     0.000002  d :     0.000173
      dxz     :     0.000003
      dyz     :     0.000031
      dx2y2   :     0.000035
      dxy     :     0.000103

  5 H s       :     0.008825  s :     0.008825
      pz      :    -0.000761  p :    -0.000445
      px      :    -0.000100
      py      :     0.000416
      dz2     :     0.000017  d :     0.000119
      dxz     :     0.000036
      dyz     :     0.000015
      dx2y2   :     0.000046
      dxy     :     0.000005

  6 H s       :     0.022321  s :     0.022321
      pz      :    -0.000249  p :     0.007978
      px      :     0.008634
      py      :    -0.000408
      dz2     :     0.000080  d :     0.000173
      dxz     :     0.000027
      dyz     :     0.000020
      dx2y2   :     0.000019
      dxy     :     0.000027



                     *******************************
                     * LOEWDIN POPULATION ANALYSIS *
                     *******************************

-------------------------------------------
LOEWDIN ATOMIC CHARGES AND SPIN POPULATIONS
-------------------------------------------
   0 O :    0.158972    0.941510
   1 C :   -0.289161    0.658551
   2 C :    0.142493    0.177178
   3 H :    0.037432    0.156813
   4 H :   -0.020659    0.030272
   5 H :   -0.008402    0.005479
   6 H :   -0.020674    0.030198

----------------------------------------------------
LOEWDIN REDUCED ORBITAL CHARGES AND SPIN POPULATIONS
----------------------------------------------------
CHARGE
  0 O s       :     3.378446  s :     3.378446
      pz      :     1.321168  p :     4.161657
      px      :     1.336164
      py      :     1.504324
      dz2     :     0.029950  d :     0.292650
      dxz     :     0.031433
      dyz     :     0.072224
      dx2y2   :     0.092156
      dxy     :     0.066887
      f0      :     0.000823  f :     0.008276
      f+1     :     0.000427
      f-1     :     0.001130
      f+2     :     0.000505
      f-2     :     0.001519
      f+3     :     0.001436
      f-3     :     0.002437

  1 C s       :     2.675628  s :     2.675628
      pz      :     0.868261  p :     2.644717
      px      :     0.892409
      py      :     0.884047
      dz2     :     0.101153  d :     0.863030
      dxz     :     0.141816
      dyz     :     0.153900
      dx2y2   :     0.231146
      dxy     :     0.235014
      f0      :     0.009869  f :     0.105786
      f+1     :     0.008046
      f-1     :     0.013249
      f+2     :     0.007823
      f-2     :     0.018929
      f+3     :     0.018985
      f-3     :     0.028885

  2 C s       :     2.643052  s :     2.643052
      pz      :     0.924481  p :     2.691298
      px      :     0.861763
      py      :     0.905054
      dz2     :     0.051294  d :     0.489860
      dxz     :     0.151707
      dyz     :     0.072530
      dx2y2   :     0.132775
      dxy     :     0.081554
      f0      :     0.003303  f :     0.033297
      f+1     :     0.007091
      f-1     :     0.003087
      f+2     :     0.003489
      f-2     :     0.004791
      f+3     :     0.006350
      f-3     :     0.005186

  3 H s       :     0.649675  s :     0.649675
      pz      :     0.111420  p :     0.282886
      px      :     0.083287
      py      :     0.088179
      dz2     :     0.008684  d :     0.030007
      dxz     :     0.005212
      dyz     :     0.007072
      dx2y2   :     0.004276
      dxy     :     0.004763

  4 H s       :     0.701050  s :     0.701050
      pz      :     0.084819  p :     0.289220
      px      :     0.078174
      py      :     0.126228
      dz2     :     0.003948  d :     0.030389
      dxz     :     0.001846
      dyz     :     0.008756
      dx2y2   :     0.007725
      dxy     :     0.008115

  5 H s       :     0.703104  s :     0.703104
      pz      :     0.104358  p :     0.275411
      px      :     0.082681
      py      :     0.088373
      dz2     :     0.008192  d :     0.029887
      dxz     :     0.006715
      dyz     :     0.006050
      dx2y2   :     0.004391
      dxy     :     0.004538

  6 H s       :     0.701045  s :     0.701045
      pz      :     0.112721  p :     0.289235
      px      :     0.097919
      py      :     0.078595
      dz2     :     0.008582  d :     0.030394
      dxz     :     0.008460
      dyz     :     0.006796
      dx2y2   :     0.003033
      dxy     :     0.003524


SPIN
  0 O s       :     0.009639  s :     0.009639
      pz      :     0.389065  p :     0.812693
      px      :     0.315211
      py      :     0.108417
      dz2     :     0.008888  d :     0.115987
      dxz     :     0.021557
      dyz     :     0.029709
      dx2y2   :     0.048977
      dxy     :     0.006857
      f0      :     0.000351  f :     0.003190
      f+1     :     0.000073
      f-1     :     0.000498
      f+2     :     0.000081
      f-2     :     0.000843
      f+3     :     0.000015
      f-3     :     0.001329

  1 C s       :     0.006865  s :     0.006865
      pz      :     0.215946  p :     0.432985
      px      :     0.115239
      py      :     0.101799
      dz2     :     0.025389  d :     0.189824
      dxz     :     0.004155
      dyz     :     0.068404
      dx2y2   :     0.044190
      dxy     :     0.047686
      f0      :     0.002085  f :     0.028877
      f+1     :     0.002318
      f-1     :     0.002505
      f+2     :     0.003067
      f-2     :     0.006932
      f+3     :     0.001266
      f-3     :     0.010704

  2 C s       :     0.008657  s :     0.008657
      pz      :     0.005224  p :     0.056160
      px      :     0.039107
      py      :     0.011829
      dz2     :     0.004959  d :     0.104948
      dxz     :     0.024888
      dyz     :     0.025210
      dx2y2   :     0.048550
      dxy     :     0.001341
      f0      :     0.000186  f :     0.007413
      f+1     :     0.002725
      f-1     :     0.000377
      f+2     :     0.000093
      f-2     :     0.001413
      f+3     :     0.002374
      f-3     :     0.000245

  3 H s       :     0.086578  s :     0.086578
      pz      :     0.031918  p :     0.062950
      px      :     0.014980
      py      :     0.016053
      dz2     :     0.005373  d :     0.007285
      dxz     :     0.000076
      dyz     :    -0.000132
      dx2y2   :    -0.000016
      dxy     :     0.001984

  4 H s       :     0.018936  s :     0.018936
      pz      :     0.001242  p :     0.010386
      px      :     0.004421
      py      :     0.004723
      dz2     :    -0.000007  d :     0.000950
      dxz     :     0.000022
      dyz     :     0.000120
      dx2y2   :     0.000247
      dxy     :     0.000568

  5 H s       :     0.002657  s :     0.002657
      pz      :     0.000138  p :     0.001897
      px      :     0.001555
      py      :     0.000204
      dz2     :     0.000058  d :     0.000925
      dxz     :     0.000271
      dyz     :     0.000175
      dx2y2   :     0.000411
      dxy     :     0.000010

  6 H s       :     0.018883  s :     0.018883
      pz      :     0.000010  p :     0.010365
      px      :     0.008745
      py      :     0.001610
      dz2     :     0.000438  d :     0.000950
      dxz     :     0.000130
      dyz     :     0.000129
      dx2y2   :     0.000113
      dxy     :     0.000140



                      *****************************
                      * MAYER POPULATION ANALYSIS *
                      *****************************

  NA   - Mulliken gross atomic population
  ZA   - Total nuclear charge
  QA   - Mulliken gross atomic charge
  VA   - Mayer's total valence
  BVA  - Mayer's bonded valence
  FA   - Mayer's free valence

  ATOM       NA         ZA         QA         VA         BVA        FA
  0 O      8.3265     8.0000    -0.3265     2.0419     1.4606     0.5813
  1 C      5.9834     6.0000     0.0166     3.3432     2.7962     0.5470
  2 C      6.5829     6.0000    -0.5829     3.6015     3.5876     0.0139
  3 H      0.7957     1.0000     0.2043     0.9734     0.9624     0.0110
  4 H      0.7824     1.0000     0.2176     1.0244     1.0235     0.0009
  5 H      0.7467     1.0000     0.2533     0.9925     0.9924     0.0002
  6 H      0.7823     1.0000     0.2177     1.0239     1.0230     0.0009

  Mayer bond orders larger than 0.100000
B(  0-O ,  1-C ) :   1.3125 B(  1-C ,  2-C ) :   0.6190 B(  1-C ,  3-H ) :   0.9320 
B(  2-C ,  4-H ) :   1.0133 B(  2-C ,  5-H ) :   0.9249 B(  2-C ,  6-H ) :   1.0127 


-------
TIMINGS
-------

Total SCF time: 0 days 0 hours 0 min 5 sec 

Total time                  ....       5.045 sec
Sum of individual times     ....       5.036 sec  ( 99.8%)

SCF preparation             ....       0.420 sec  (  8.3%)
Fock matrix formation       ....       4.103 sec  ( 81.3%)
  Startup                   ....       0.028 sec  (  0.7% of F)
  Split-RI-J                ....       0.172 sec  (  4.2% of F)
  Chain of spheres X        ....       2.633 sec  ( 64.2% of F)
  XC integration            ....       1.180 sec  ( 28.8% of F)
    Basis function eval.    ....       0.077 sec  (  6.6% of XC)
    Density eval.           ....       0.358 sec  ( 30.3% of XC)
    XC-Functional eval.     ....       0.033 sec  (  2.8% of XC)
    XC-Potential eval.      ....       0.583 sec  ( 49.5% of XC)
Diagonalization             ....       0.000 sec  (  0.0%)
Density matrix formation    ....       0.061 sec  (  1.2%)
Total Energy calculation    ....       0.042 sec  (  0.8%)
Population analysis         ....       0.020 sec  (  0.4%)
Orbital Transformation      ....       0.044 sec  (  0.9%)
Orbital Orthonormalization  ....       0.000 sec  (  0.0%)
DIIS solution               ....       0.224 sec  (  4.4%)
SOSCF solution              ....       0.119 sec  (  2.4%)
Finished LeanSCF after   5.1 sec

Maximum memory used throughout the entire LEANSCF-calculation: 14.7 MB
[1739831732.017973] [ohm:3898138:0]        ib_iface.c:1059 UCX  ERROR ibv_create_cq(cqe=256) failed: Connection timed out
[1739831732.018813] [ohm:3898142:0]        ib_iface.c:1059 UCX  ERROR ibv_create_cq(cqe=256) failed: Connection timed out
[1739831732.026358] [ohm:3898140:0]        ib_iface.c:1059 UCX  ERROR ibv_create_cq(cqe=256) failed: Connection timed out
[1739831732.027683] [ohm:3898139:0]        ib_iface.c:1059 UCX  ERROR ibv_create_cq(cqe=256) failed: Connection timed out
[1739831732.027708] [ohm:3898141:0]        ib_iface.c:1059 UCX  ERROR ibv_create_cq(cqe=256) failed: Connection timed out
[1739831732.028045] [ohm:3898137:0]        ib_iface.c:1059 UCX  ERROR ibv_create_cq(cqe=256) failed: Connection timed out
[1739831732.033343] [ohm:3898144:0]        ib_iface.c:1059 UCX  ERROR ibv_create_cq(cqe=256) failed: Connection timed out
[1739831732.033327] [ohm:3898147:0]        ib_iface.c:1059 UCX  ERROR ibv_create_cq(cqe=256) failed: Connection timed out
[1739831732.037130] [ohm:3898145:0]        ib_iface.c:1059 UCX  ERROR ibv_create_cq(cqe=256) failed: Connection timed out
[1739831732.037126] [ohm:3898143:0]        ib_iface.c:1059 UCX  ERROR ibv_create_cq(cqe=256) failed: Connection timed out
[1739831732.039094] [ohm:3898150:0]        ib_iface.c:1059 UCX  ERROR ibv_create_cq(cqe=256) failed: Connection timed out
[1739831732.039810] [ohm:3898149:0]        ib_iface.c:1059 UCX  ERROR ibv_create_cq(cqe=256) failed: Connection timed out
[1739831732.039971] [ohm:3898160:0]        ib_iface.c:1059 UCX  ERROR ibv_create_cq(cqe=256) failed: Connection timed out
[1739831732.040396] [ohm:3898154:0]        ib_iface.c:1059 UCX  ERROR ibv_create_cq(cqe=256) failed: Connection timed out
[1739831732.069346] [ohm:3898166:0]        ib_iface.c:1059 UCX  ERROR ibv_create_cq(cqe=256) failed: Connection timed out
[1739831732.069889] [ohm:3898164:0]        ib_iface.c:1059 UCX  ERROR ibv_create_cq(cqe=256) failed: Connection timed out


           ************************************************************
           *        Program running with 16 parallel MPI-processes    *
           *              working on a common directory               *
           ************************************************************

------------------------------------------------------------------------------
                         ORCA PROPERTY INTEGRAL CALCULATIONS
------------------------------------------------------------------------------

GBWName                                   ... orca.gbw
Number of atoms                           ...      7
Number of basis functions                 ...    182
Max core memory                           ...   1024 MB

Dipole integrals                          ... YES
Quadrupole integrals                      ...  NO
Linear momentum integrals                 ... YES
Angular momentum integrals                ... YES
Higher moments length integrals           ...  NO
Higher moments velocity integrals         ...  NO
Kinetic energy integrals                  ...  NO
GIAO right hand sides                     ...  NO
GIAO dipole derivative integrals          ...  NO
SOC integrals                             ...  NO
EPR diamagnetic integrals (GIAO)          ...  NO
EPR gauge integrals                       ...  NO
Field gradient integrals                  ...  NO (   0 nuclei)
Spin-dipole/Fermi contact integrals       ...  NO (   0 nuclei)
Contact density integrals                 ...  NO (   0 nuclei)
Nucleus-orbit integrals                   ...  NO (   0 nuclei)
Geometric perturbations                   ...  NO (   7 nuclei)

Choice of electric origin   ... Center of mass
Position of electric origin ... (  1.4027,  0.1788, -0.0368) 
Choice of magnetic origin   ... GIAO
Position of magnetic origin ... (  0.0000,  0.0000,  0.0000) 

Calculating integrals                     ... Electric Dipole (Length)     done (  0.0 sec)
Calculating integrals                     ... Linear Momentum              done (  0.0 sec)
Calculating integrals                     ... Angular Momentum  (ElOri)    done (  0.0 sec)

Property integrals calculated in   0.0 sec

Maximum memory used throughout the entire PROPINT-calculation: 10.3 MB
[1739831732.746741] [ohm:3898221:0]        ib_iface.c:1059 UCX  ERROR ibv_create_cq(cqe=256) failed: Connection timed out
[1739831732.746733] [ohm:3898230:0]        ib_iface.c:1059 UCX  ERROR ibv_create_cq(cqe=256) failed: Connection timed out
[1739831732.747859] [ohm:3898227:0]        ib_iface.c:1059 UCX  ERROR ibv_create_cq(cqe=256) failed: Connection timed out
[1739831732.747930] [ohm:3898225:0]        ib_iface.c:1059 UCX  ERROR ibv_create_cq(cqe=256) failed: Connection timed out
[1739831732.750556] [ohm:3898223:0]        ib_iface.c:1059 UCX  ERROR ibv_create_cq(cqe=256) failed: Connection timed out
[1739831732.755174] [ohm:3898233:0]        ib_iface.c:1059 UCX  ERROR ibv_create_cq(cqe=256) failed: Connection timed out
[1739831732.757501] [ohm:3898228:0]        ib_iface.c:1059 UCX  ERROR ibv_create_cq(cqe=256) failed: Connection timed out
[1739831732.757882] [ohm:3898239:0]        ib_iface.c:1059 UCX  ERROR ibv_create_cq(cqe=256) failed: Connection timed out
[1739831732.758253] [ohm:3898226:0]        ib_iface.c:1059 UCX  ERROR ibv_create_cq(cqe=256) failed: Connection timed out
[1739831732.758248] [ohm:3898222:0]        ib_iface.c:1059 UCX  ERROR ibv_create_cq(cqe=256) failed: Connection timed out
[1739831732.758248] [ohm:3898224:0]        ib_iface.c:1059 UCX  ERROR ibv_create_cq(cqe=256) failed: Connection timed out
[1739831732.758861] [ohm:3898220:0]        ib_iface.c:1059 UCX  ERROR ibv_create_cq(cqe=256) failed: Connection timed out
[1739831732.758962] [ohm:3898232:0]        ib_iface.c:1059 UCX  ERROR ibv_create_cq(cqe=256) failed: Connection timed out
[1739831732.759605] [ohm:3898235:0]        ib_iface.c:1059 UCX  ERROR ibv_create_cq(cqe=256) failed: Connection timed out
[1739831732.760157] [ohm:3898244:0]        ib_iface.c:1059 UCX  ERROR ibv_create_cq(cqe=256) failed: Connection timed out
[1739831732.774485] [ohm:3898249:0]        ib_iface.c:1059 UCX  ERROR ibv_create_cq(cqe=256) failed: Connection timed out


           ************************************************************
           *        Program running with 16 parallel MPI-processes    *
           *              working on a common directory               *
           ************************************************************
------------------------------------------------------------------------------
                        ORCA TD-DFT/TDA CALCULATION
------------------------------------------------------------------------------

Input orbitals are from        ... orca.gbw
CI-vector output               ... orca.cis
Solver                         ... FN-2001
Tamm-Dancoff approximation     ... operative
CIS-Integral strategy          ... AO-integrals
Integral handling              ... AO integral Direct
Max. core memory used          ... 512 MB
Reference state                ... UHF
Follow IRoot                   ... off
Number of operators            ... 2
Orbital ranges used for CIS calculation:
 Operator 0:  Orbitals   3... 12  to  11...181

-------------------
XC-INTEGRATION GRID
-------------------

General Integration Accuracy     IntAcc      ... 3.467
Radial Grid Type                 RadialGrid  ... OptM3 with GC (2021)
Angular Grid (max. ang.)         AngularGrid ... 1 (Lebedev-50)
Angular grid pruning method      GridPruning ... 4 (adaptive)
Weight generation scheme         WeightScheme... mBecke (2022)
Basis function cutoff            BFCut       ... 1.0000e-11
Integration weight cutoff        WCut        ... 1.0000e-14
Partially contracted basis set               ... off
Rotationally invariant grid construction     ... off
Angular grids for H and He will be reduced by one unit
Diffuse basis detected: some atoms will have their outermost
                        angular grid increased by 1.

Total number of grid points                  ...     4737
Total number of batches                      ...       77
Average number of points per batch           ...       61
Average number of grid points per atom       ...      677

---------------------
COSX-INTEGRATION GRID
---------------------

General Integration Accuracy     IntAcc      ... 3.067
Radial Grid Type                 RadialGrid  ... OptM3 with GC (2021)
Angular Grid (max. ang.)         AngularGrid ... 1 (Lebedev-50)
Angular grid pruning method      GridPruning ... 4 (adaptive)
Weight generation scheme         WeightScheme... mBecke (2022)
Basis function cutoff            BFCut       ... 1.0000e-11
Integration weight cutoff        WCut        ... 1.0000e-14
Partially contracted basis set               ... on
Rotationally invariant grid construction     ... off
Angular grids for H and He will be reduced by one unit
Diffuse basis detected: some atoms will have their outermost
                        angular grid increased by 1.

Total number of grid points                  ...     2153
Total number of batches                      ...       22
Average number of points per batch           ...       97
Average number of grid points per atom       ...      308

---------------
TD-DFT XC SETUP
---------------

DFT calculation                         ... on
Name of the grid file                   ... orca.grid_cis.tmp
RI-approximation                        ... on
Aux-basis dimension                     ... 0
Functional (TD-DFT)
  Functional kind                       .... Exchange-Correlation
  Functional name                       .... wB97M-V exchange-correlation functional
  Functional family                     .... Hybrid MGGA
  Functional refs                              
    [ 0] N. Mardirossian and M. Head-Gordon.,  J. Chem. Phys. 144, 214110 (2016), doi: 10.1063/1.4952647
  Fraction of HF Exchange (short range) .... 0.1500
  Fraction of HF Exchange (long range)  .... 1.0000
  Range separation parameter mu         .... 0.3000
  Functional external parameters        .... 17
    Parameter  0 _cx00      =  8.500000e-01 : u^00 coefficient for exchange
    Parameter  1 _cx01      =  1.007000e+00 : u^01 coefficient for exchange
    Parameter  2 _cx10      =  2.590000e-01 : u^10 coefficient for exchange
    Parameter  3 _css00     =  4.430000e-01 : u^00 coefficient for same-spin correlation
    Parameter  4 _css04     = -1.437000e+00 : u^04 coefficient for same-spin correlation
    Parameter  5 _css10     = -4.535000e+00 : u^10 coefficient for same-spin correlation
    Parameter  6 _css20     = -3.390000e+00 : u^20 coefficient for same-spin correlation
    Parameter  7 _css43     =  4.278000e+00 : u^43 coefficient for same-spin correlation
    Parameter  8 _cos00     =  1.000000e+00 : u^00 coefficient for opposite-spin correlation
    Parameter  9 _cos10     =  1.358000e+00 : u^10 coefficient for opposite-spin correlation
    Parameter 10 _cos20     =  2.924000e+00 : u^20 coefficient for opposite-spin correlation
    Parameter 11 _cos21     = -8.812000e+00 : u^21 coefficient for opposite-spin correlation
    Parameter 12 _cos60     = -1.390000e+00 : u^60 coefficient for opposite-spin correlation
    Parameter 13 _cos61     =  9.142000e+00 : u^61 coefficient for opposite-spin correlation
    Parameter 14 _alpha     =  1.000000e+00 : fraction of HF exchange
    Parameter 15 _beta      = -8.500000e-01 : fraction of short-range exchange
    Parameter 16 _omega     =  3.000000e-01 : range-separation constant
Hybrid DFT                              ... on
   Exchange mixing (TD-DFT)             ...  0.150
   GGA exch. scaling (TD-DFT)           ...  0.000
   GGA corr. scaling (TD-DFT)           ...  1.000
Range-Separated Exchange                ... on
   Range Range separation parameter mu  .... 0.300
   Max. amount of RS exchange (TD-DFT)  ...  0.850

Building densities             ... done
Calculating rho(r) on the grid ... done
Building xc-kernel on the grid ... done
                    *** TD-DFT CALCULATION INITIALIZED ***

------------------------
DAVIDSON-DIAGONALIZATION
------------------------

Dimension of the eigenvalue problem            ...   1710
Number of roots to be determined               ...      2
Maximum size of the expansion space            ...     20
Maximum number of iterations                   ...    100
Convergence tolerance for the residual         ...    2.500e-07
Convergence tolerance for the energies         ...    2.500e-07
Orthogonality tolerance                        ...    1.000e-14
Level Shift                                    ...    0.000e+00
Constructing the preconditioner                ... o.k.
Building the initial guess                     ... o.k.
Number of trial vectors determined             ...     20


                       ****Iteration    0****
   Time for iteration     :  TOTAL=0.2 TRAFO=0.0 RIJ=0.0 COSX=0.2
   Size of expansion space: 6
   Lowest Energy          :    -0.133055279229
   Maximum Energy change  :     0.133055279229 (vector 0)
   Maximum residual norm  :     0.004371121583

                       ****Iteration    1****
   Time for iteration     :  TOTAL=0.1 TRAFO=0.0 COSX=0.1
   Size of expansion space: 8
   Lowest Energy          :    -0.136327824112
   Maximum Energy change  :     0.012263738386 (vector 1)
   Maximum residual norm  :     0.000445241725

                       ****Iteration    2****
   Time for iteration     :  TOTAL=0.1 TRAFO=0.0 COSX=0.1
   Size of expansion space: 10
   Lowest Energy          :    -0.136361356403
   Maximum Energy change  :     0.001108554886 (vector 1)
   Maximum residual norm  :     0.000039521144

                       ****Iteration    3****
   Time for iteration     :  TOTAL=0.1 TRAFO=0.0 COSX=0.1
   Size of expansion space: 12
   Lowest Energy          :    -0.136361904557
   Maximum Energy change  :     0.000118200691 (vector 1)
   Maximum residual norm  :     0.000049056894

                       ****Iteration    4****
   Time for iteration     :  TOTAL=0.1 TRAFO=0.0 COSX=0.1
   Size of expansion space: 14
   Lowest Energy          :    -0.136361916219
   Maximum Energy change  :     0.014787365079 (vector 1)
   Maximum residual norm  :     0.007374593050

                       ****Iteration    5****
   Time for iteration     :  TOTAL=0.1 TRAFO=0.0 COSX=0.1
   Size of expansion space: 16
   Lowest Energy          :    -0.136361916459
   Maximum Energy change  :     0.006380761628 (vector 1)
   Maximum residual norm  :     0.000408106688

                       ****Iteration    6****
   Time for iteration     :  TOTAL=0.1 TRAFO=0.0 RIJ=0.0 COSX=0.1
   Size of expansion space: 18
   Lowest Energy          :    -0.136361916463
   Maximum Energy change  :     0.000335443195 (vector 1)
   Maximum residual norm  :     0.000032375914

                       ****Iteration    7****
   Time for iteration     :  TOTAL=0.1 TRAFO=0.0 COSX=0.1
   Size of expansion space: 20
   Lowest Energy          :    -0.136361916463
   Maximum Energy change  :     0.000031228645 (vector 1)
   Maximum residual norm  :     0.000002350425
   Rebuilding the expansion space

                       ****Iteration    8****
   Time for iteration     :  TOTAL=0.2 TRAFO=0.0 COSX=0.1
   Size of expansion space: 4
   Lowest Energy          :    -0.136362102260
   Maximum Energy change  :     0.000000185797 (vector 0)

         *** CONVERGENCE OF ENERGIES REACHED ***

Storing the converged CI vectors               ... orca.cis3

                 *** DAVIDSON DONE ***

Total time for solving the CIS problem:     1.308sec

---------------------
SF-TDA EXCITED STATES
---------------------

the weight of the individual excitations are printed if larger than 1.0e-02

UHF/UKS reference: multiplicity estimated based on rounded <S**2> value, RELEVANCE IS LIMITED!

(SPIN-FLIP GROUND STATE)
STATE  1:  E=  -0.136362 au     -3.711 eV   -29928.0 cm**-1 <S**2> =   0.019617 Mult 1
    12a ->  11b  :     0.977631 (c= -0.98875218)

STATE  2:  E=   0.033259 au      0.905 eV     7299.5 cm**-1 <S**2> =   1.151840 Mult 3
    12a ->  15b  :     0.208910 (c=  0.45706651)
    12a ->  16b  :     0.724726 (c=  0.85130827)
    12a ->  18b  :     0.017461 (c=  0.13214148)
    12a ->  21b  :     0.011011 (c=  0.10493193)
    12a ->  26b  :     0.021168 (c= -0.14549190)


-----------------------------
TD-DFT/TDA-EXCITATION SPECTRA
-----------------------------

Center of mass = (  1.4027,  0.1788, -0.0368)
Generating CIS-Spin-flip transition densities           ... done

UHF/UKS reference: multiplicity estimated based on rounded <S**2> value, use it judiciously!

----------------------------------------------------------------------------------------------------
          SPIN FLIP ABSORPTION SPECTRUM VIA TRANSITION ELECTRIC DIPOLE MOMENTS    
----------------------------------------------------------------------------------------------------
     Transition      Energy     Energy  Wavelength fosc(D2)      D2        DX        DY        DZ   
                      (eV)      (cm-1)    (nm)                 (au**2)    (au)      (au)      (au)  
----------------------------------------------------------------------------------------------------
  1-3A  ->  2-3A    4.615626   37227.5   268.6   0.000329329   0.00291  -0.02736   0.02687   0.03797

----------------------------------------------------------------------------------------------------
          SPIN FLIP ABSORPTION SPECTRUM VIA TRANSITION VELOCITY DIPOLE MOMENTS    
----------------------------------------------------------------------------------------------------
     Transition      Energy     Energy  Wavelength fosc(P2)      P2        PX        PY        PZ   
                      (eV)      (cm-1)    (nm)                 (au**2)    (au)      (au)      (au)  
[...]
      f-1     :    -0.000721
      f+2     :     0.003301
      f-2     :    -0.000970
      f+3     :    -0.000264
      f-3     :     0.002970
  2 C s       :     0.011965  s :     0.011965
      pz      :     0.008264  p :     0.085217
      px      :     0.056671
      py      :     0.020281
      dz2     :    -0.006503  d :    -0.111115
      dxz     :    -0.022908
      dyz     :    -0.025376
      dx2y2   :    -0.052673
      dxy     :    -0.003656
      f0      :    -0.000135  f :    -0.007495
      f+1     :    -0.002772
      f-1     :    -0.000391
      f+2     :    -0.000068
      f-2     :    -0.001429
      f+3     :    -0.002561
      f-3     :    -0.000139
  3 H s       :     0.104351  s :     0.104351
      pz      :    -0.034217  p :    -0.070803
      px      :    -0.018989
      py      :    -0.017598
      dz2     :    -0.005185  d :    -0.007997
      dxz     :    -0.000231
      dyz     :    -0.000480
      dx2y2   :    -0.000254
      dxy     :    -0.001847
  4 H s       :    -0.020930  s :    -0.020930
      pz      :    -0.000549  p :    -0.004475
      px      :    -0.000884
      py      :    -0.003042
      dz2     :     0.000056  d :     0.001285
      dxz     :     0.000056
      dyz     :     0.000176
      dx2y2   :     0.000343
      dxy     :     0.000654
  5 H s       :     0.003289  s :     0.003289
      pz      :     0.000365  p :     0.004835
      px      :     0.003297
      py      :     0.001173
      dz2     :     0.000017  d :     0.001209
      dxz     :     0.000383
      dyz     :     0.000248
      dx2y2   :     0.000569
      dxy     :    -0.000008
  6 H s       :    -0.020874  s :    -0.020874
      pz      :     0.000501  p :    -0.004442
      px      :    -0.004626
      py      :    -0.000317
      dz2     :     0.000554  d :     0.001286
      dxz     :     0.000264
      dyz     :     0.000111
      dx2y2   :     0.000176
      dxy     :     0.000181


                      *****************************
                      * MAYER POPULATION ANALYSIS *
                      *****************************

  NA   - Mulliken gross atomic population
  ZA   - Total nuclear charge
  QA   - Mulliken gross atomic charge
  VA   - Mayer's total valence
  BVA  - Mayer's bonded valence
  FA   - Mayer's free valence

  ATOM       NA         ZA         QA         VA         BVA        FA
  0 O      8.2768     8.0000    -0.2768     2.0274     1.4558     0.5717
  1 C      5.7620     6.0000     0.2380     3.4000     2.8400     0.5601
  2 C      6.7065     6.0000    -0.7065     3.6564     3.6213     0.0350
  3 H      0.9207     1.0000     0.0793     1.0926     1.0638     0.0288
  4 H      0.7910     1.0000     0.2090     1.0530     1.0441     0.0089
  5 H      0.7526     1.0000     0.2474     1.0017     1.0007     0.0009
  6 H      0.7905     1.0000     0.2095     1.0534     1.0443     0.0091

  Mayer bond orders larger than 0.100000
B(  0-O ,  1-C ) :   1.3059 B(  1-C ,  2-C ) :   0.5971 B(  1-C ,  3-H ) :   0.9894 
B(  2-C ,  4-H ) :   1.0169 B(  2-C ,  5-H ) :   0.9284 B(  2-C ,  6-H ) :   1.0166 



-------
TIMINGS
-------

Total TD-DFT gradient time  ....        5.069 sec

Fock matrix formation       ....       1.087 sec  ( 21.4%)
  Coulomb formation         ....       0.845 sec  ( 77.8% of F)
  XC integration            ....       0.241 sec  ( 22.2% of F)
Z-vector equation           ....       1.261 sec  ( 24.9%)
Densities                   ....       0.000 sec  (  0.0%)
One electron gradient       ....       0.010 sec  (  0.2%)
Two electron gradient       ....       0.000 sec  (  0.0%)
RI-J Coulomb gradient       ....       0.093 sec  (  1.8%)
COSX gradient               ....       0.414 sec  (  8.2%)
XC gradient                 ....       1.994 sec  ( 39.3%)

Maximum memory used throughout the entire CIS-calculation: 35.8 MB
=> NOW LEAVING ORCA_CIS


-------------------------------------------------------------------------------
                          DFT DISPERSION CORRECTION                            
                                                                               
                              DFTD3 V3.1  Rev 1                                
                          USING Becke-Johnson damping                          
-------------------------------------------------------------------------------
The WB97M functional is recognized
Active option DFTDOPT                   ...         4   

molecular C6(AA) [au] = 395.097709 


            DFT-D V3
 parameters
 s6 scaling factor         :     1.0000 
 a1 scaling factor         :     0.5660 
 s8 scaling factor         :     0.3908 
 a2 scaling factor         :     3.1280 
 ad hoc parameters k1-k3   :    16.0000     1.3333    -4.0000 

 Edisp/kcal,au: -3.454936501070  -0.005505791188 
 E6   /kcal   :  -2.787257967 
 E8   /kcal   :  -0.667678534 
 % E8         :  19.325348922 

-------------------------   ----------------
Dispersion correction           -0.005505791
-------------------------   ----------------


-------------------------   --------------------
FINAL SINGLE POINT ENERGY      -153.748862707940
-------------------------   --------------------

[1739831739.920584] [ohm:3898347:0]        ib_iface.c:1059 UCX  ERROR ibv_create_cq(cqe=256) failed: Connection timed out
[1739831739.920708] [ohm:3898349:0]        ib_iface.c:1059 UCX  ERROR ibv_create_cq(cqe=256) failed: Connection timed out
[1739831739.920987] [ohm:3898345:0]        ib_iface.c:1059 UCX  ERROR ibv_create_cq(cqe=256) failed: Connection timed out
[1739831739.948337] [ohm:3898354:0]        ib_iface.c:1059 UCX  ERROR ibv_create_cq(cqe=256) failed: Connection timed out
[1739831739.948338] [ohm:3898357:0]        ib_iface.c:1059 UCX  ERROR ibv_create_cq(cqe=256) failed: Connection timed out
[1739831739.949043] [ohm:3898351:0]        ib_iface.c:1059 UCX  ERROR ibv_create_cq(cqe=256) failed: Connection timed out
[1739831739.949455] [ohm:3898344:0]        ib_iface.c:1059 UCX  ERROR ibv_create_cq(cqe=256) failed: Connection timed out
[1739831739.949453] [ohm:3898346:0]        ib_iface.c:1059 UCX  ERROR ibv_create_cq(cqe=256) failed: Connection timed out
[1739831739.949520] [ohm:3898348:0]        ib_iface.c:1059 UCX  ERROR ibv_create_cq(cqe=256) failed: Connection timed out
[1739831739.949735] [ohm:3898350:0]        ib_iface.c:1059 UCX  ERROR ibv_create_cq(cqe=256) failed: Connection timed out
[1739831739.952649] [ohm:3898352:0]        ib_iface.c:1059 UCX  ERROR ibv_create_cq(cqe=256) failed: Connection timed out
[1739831739.952650] [ohm:3898356:0]        ib_iface.c:1059 UCX  ERROR ibv_create_cq(cqe=256) failed: Connection timed out
[1739831739.965112] [ohm:3898363:0]        ib_iface.c:1059 UCX  ERROR ibv_create_cq(cqe=256) failed: Connection timed out
[1739831739.965135] [ohm:3898372:0]        ib_iface.c:1059 UCX  ERROR ibv_create_cq(cqe=256) failed: Connection timed out
[1739831739.966426] [ohm:3898359:0]        ib_iface.c:1059 UCX  ERROR ibv_create_cq(cqe=256) failed: Connection timed out
[1739831739.966426] [ohm:3898369:0]        ib_iface.c:1059 UCX  ERROR ibv_create_cq(cqe=256) failed: Connection timed out


           ************************************************************
           *        Program running with 16 parallel MPI-processes    *
           *              working on a common directory               *
           ************************************************************

------------------------------------------------------------------------------
                              ORCA PROPERTY CALCULATIONS
------------------------------------------------------------------------------

GBWName                                 ... orca.gbw
Number of atoms                         ...      7
Number of basis functions               ...    182
Max core memory                         ...   1024 MB

Electric properties:
Dipole moment                           ... YES
Quadrupole moment                       ...  NO
Static polarizability (Dipole/Dipole)   ...  NO
Static polarizability (Dipole/Quad.)    ...  NO
Static polarizability (Quad./Quad.)     ...  NO
Static polarizability (Velocity)        ...  NO

Atomic electric properties:
Dipole moment                           ...  NO
Quadrupole moment                       ...  NO
Static polarizability                   ...  NO

Choice of electric origin               ... Center of mass
Position of electric origin             ...     1.402746     0.178826    -0.036767

General magnetic properties:
Magnetizability                         ...  NO

EPR properties:
g-Tensor (aka g-matrix)                 ...  NO
Zero-Field splitting spin-orbit         ...  NO
Zero-field splitting spin-spin          ...  NO
Hyperfine couplings                     ...  NO (   0 nuclei)
Quadrupole couplings                    ...  NO (   0 nuclei)
Contact density                         ...  NO (   0 nuclei)

NMR properties:
Chemical shifts                         ...  NO (   0 nuclei)
Spin-rotation constants                 ...  NO (   0 nuclei)
Spin-spin couplings                     ...  NO (   0 nuclei,    0 pairs)

Choice of magnetic origin               ... GIAO
Position of magnetic origin             ...     0.000000     0.000000     0.000000

Properties with geometric perturbations:
SCF Hessian                             ...  NO
IR spectrum                             ...  NO
VCD spectrum                            ...  NO
X-ray spectroscopy properties:
SCF XES/XAS/RIXS spectra                ...  NO


-------------
DIPOLE MOMENT
-------------

Method             : SCF
Type of density    : Electron Density
Multiplicity       :   3
Irrep              :   0
Energy             :  -153.7766159568833473 Eh
Relativity type    : 
Basis              : AO
                                X                 Y                 Z
Electronic contribution:      2.726714074       2.842400707      -0.045219405
Nuclear contribution   :     -3.165171623      -3.410901343       0.131406611
                        -----------------------------------------
Total Dipole Moment    :     -0.438457549      -0.568500636       0.086187206
                        -----------------------------------------
Magnitude (a.u.)       :      0.723094897
Magnitude (Debye)      :      1.837961162



--------------------
Rotational spectrum 
--------------------
 
Rotational constants in cm-1:             2.322131             0.310993             0.288841 
Rotational constants in MHz :         69615.723409          9323.342113          8659.248190 

Dipole components along the rotational axes: 
x,y,z [a.u.] :     0.692537     0.207987    -0.000061 
x,y,z [Debye]:     1.760289     0.528662    -0.000155 

 

-------------
DIPOLE MOMENT
-------------

Method             : TDA/CIS
Type of density    : Electron Density
Level              : Relaxed density
State              :   2
Multiplicity       :   3
Irrep              :   0
Energy             :     0.0000000000000000 Eh
Relativity type    : 
Basis              : AO
                                X                 Y                 Z
Electronic contribution:      2.709766454       2.890615466      -0.092306427
Nuclear contribution   :     -3.165171623      -3.410901343       0.131406611
                        -----------------------------------------
Total Dipole Moment    :     -0.455405169      -0.520285877       0.039100185
                        -----------------------------------------
Magnitude (a.u.)       :      0.692546089
Magnitude (Debye)      :      1.760312264



--------------------
Rotational spectrum 
--------------------
 
Rotational constants in cm-1:             2.322131             0.310993             0.288841 
Rotational constants in MHz :         69615.723409          9323.342113          8659.248190 

Dipole components along the rotational axes: 
x,y,z [a.u.] :     0.678251     0.139982    -0.000561 
x,y,z [Debye]:     1.723978     0.355806    -0.001425 

 

Dipole moment calculation done in   0.0 sec 

Maximum memory used throughout the entire PROP-calculation: 7.5 MB
[1739831740.587731] [ohm:3898428:0]        ib_iface.c:1059 UCX  ERROR ibv_create_cq(cqe=256) failed: Connection timed out
[1739831740.587725] [ohm:3898432:0]        ib_iface.c:1059 UCX  ERROR ibv_create_cq(cqe=256) failed: Connection timed out
[1739831740.590243] [ohm:3898430:0]        ib_iface.c:1059 UCX  ERROR ibv_create_cq(cqe=256) failed: Connection timed out
[1739831740.592580] [ohm:3898431:0]        ib_iface.c:1059 UCX  ERROR ibv_create_cq(cqe=256) failed: Connection timed out
[1739831740.592636] [ohm:3898429:0]        ib_iface.c:1059 UCX  ERROR ibv_create_cq(cqe=256) failed: Connection timed out
[1739831740.592872] [ohm:3898427:0]        ib_iface.c:1059 UCX  ERROR ibv_create_cq(cqe=256) failed: Connection timed out
[1739831740.601836] [ohm:3898433:0]        ib_iface.c:1059 UCX  ERROR ibv_create_cq(cqe=256) failed: Connection timed out
[1739831740.601908] [ohm:3898434:0]        ib_iface.c:1059 UCX  ERROR ibv_create_cq(cqe=256) failed: Connection timed out
[1739831740.601914] [ohm:3898437:0]        ib_iface.c:1059 UCX  ERROR ibv_create_cq(cqe=256) failed: Connection timed out
[1739831740.620476] [ohm:3898435:0]        ib_iface.c:1059 UCX  ERROR ibv_create_cq(cqe=256) failed: Connection timed out
[1739831740.622319] [ohm:3898440:0]        ib_iface.c:1059 UCX  ERROR ibv_create_cq(cqe=256) failed: Connection timed out
[1739831740.626656] [ohm:3898439:0]        ib_iface.c:1059 UCX  ERROR ibv_create_cq(cqe=256) failed: Connection timed out
[1739831740.642396] [ohm:3898457:0]        ib_iface.c:1059 UCX  ERROR ibv_create_cq(cqe=256) failed: Connection timed out
[1739831740.642454] [ohm:3898443:0]        ib_iface.c:1059 UCX  ERROR ibv_create_cq(cqe=256) failed: Connection timed out
[1739831740.643107] [ohm:3898453:0]        ib_iface.c:1059 UCX  ERROR ibv_create_cq(cqe=256) failed: Connection timed out
[1739831740.643116] [ohm:3898462:0]        ib_iface.c:1059 UCX  ERROR ibv_create_cq(cqe=256) failed: Connection timed out

--------------------------------
SUGGESTED CITATIONS FOR THIS RUN
--------------------------------

Below you find a list of papers that are relevant to this ORCA run
We neither can nor want to force you to cite these papers, but we appreciate if you do
You receive ORCA, which is the product of decades of hard work by many enthusiastic individuals, for free
The only thing we kindly ask in return is that you cite our papers,
We deeply appreciate it, if you show your appreciation for ORCA by not just citing the generic ORCA reference.

Please note that relegating all ORCA citations to the supporting information does *not* help us.
SI sections are not indexed - citations you put there will not count into any citation statistics
But we need these citations in order to attract the funding resources that allow us to do what we are doing

Therefore, if you are a happy ORCA user, please consider citing a few of the papers listed below in the main body of your paper

In addition to the list printed below, the program has created the file orca.bibtex that contains the list in bibtex format
You can import this file easily into all common literature databanks and citation aid programs


List of essential papers. We consider these as the minimum necessary citations

  1. Neese,F.
     Software update: the ORCA program system, version 5.0
     WIRES Comput. Molec. Sci., 2022 12(1)e1606
     doi.org/10.1002/wcms.1606

List of papers to cite with high priority. The work reported in these papers was absolutely
necessary for this run to complete.
Our perspective: the developers of density functionals and basis sets usually get cited in chemistry papers
Good! But without the algorithms to do something with them, the functionals or basis sets would not do anything.
Hence, in our opinion, the algorithm design and method developments papers are equally worthy of getting cited

  1. Neese,F.; Olbrich,G.
     Efficient use of the resolution of the identity approximation in time-dependent density functional calculations with hybrid density functionals
     Chem. Phys. Lett., 2002 362 170-178
     doi.org/10.1016/s0009-2614(02)01053-9
  2. Neese,F.
     An improvement of the resolution of the identity approximation for the formation of the Coulomb matrix
     J. Comp. Chem., 2003 24(14)1740-1747
     doi.org/10.1002/jcc.10318
  3. Neese,F.; Wennmohs,F.; Hansen,A.; Becker,U.
     Efficient, approximate and parallel Hartree-Fock and hybrid DFT calculations. A 'chain-of-spheres' algorithm for the Hartree-Fock exchange
     Chem. Phys., 2009 356(1-3)98-109
     doi.org/10.1016/j.chemphys.2008.10.036
  4. Petrenko,T.; Kossmann,S.; Neese,F.
     Efficient time-dependent density functional theory approximations for hybrid density functionals: Analytical gradients and parallelization
     J. Chem. Phys., 2011 134 054116
     doi.org/10.1063/1.3533441
  5. Helmich-Paris,B.; de Souza,B.; Neese,F.; Izsák,R.
     An improved chain of spheres for exchange algorithm
     J. Chem. Phys., 2021 155 104109
     doi.org/doi: 10.1063/5.0058766.
  6. Neese,F.
     The SHARK Integral Generation and Digestion System
     J. Comp. Chem., 2022  1-16
     doi.org/10.1002/jcc.26942
  7. Lehtola,S.; Steigemann,C.; Oliveira,M.; Marques,M.
     Recent developments in Libxc - A comprehensive library of functionals for density functional theory
     Software X, 2018 7 
     doi.org/10.1016/j.softx.2017.11.002
  8. Grimme,S.; Antony,J.; Ehrlich,S.; Krieg,H.
     A consistent and accurate ab initio parametrization of density functional dispersion correction (DFT-D) for the 94 elements H-Pu
     J. Chem. Phys., 2010 132 154104-XXXX
     doi.org/10.1063/1.3382344
  9. Grimme,S.; Ehrlich,S.; Goerigk,L.
     Effect of the damping function in dispersion corrected density functional theory
     J. Comput. Chem., 2011 32(7)1456-1465
     doi.org/10.1002/jcc.21759

List of suggested additional citations. These are papers that are important in the 'surrounding' of 
of this run, or papers that preceded the highly important papers. If you like your results we are grateful for a citation.

  1. Izsak,R.; Neese,F.
     An overlap fitted chain of spheres exchange method
     J. Chem. Phys., 2011 135 144105
     doi.org/10.1063/1.3646921
  2. Izsak,R.; Hansen,A.; Neese,F.
     The resolution of identity and chain of spheres approximations for the LPNO-CCSD singles Fock term
     Molec. Phys., 2012 110 2413-2417
     doi.org/10.1080/00268976.2012.687466
  3. Neese,F.
     The ORCA program system
     WIRES Comput. Molec. Sci., 2012 2(1)73-78
     doi.org/10.1002/wcms.81
  4. Izsak,R.; Neese,F.; Klopper,W.
     Robust fitting techniques in the chain of spheres approximation to the Fock exchange: The role of the complementary space
     J. Chem. Phys., 2013 139 
     doi.org/10.1063/1.4819264
  5. Neese,F.
     Software update: the ORCA program system, version 4.0
     WIRES Comput. Molec. Sci., 2018 8(1)1-6
     doi.org/10.1002/wcms.1327
  6. Neese,F.; Wennmohs,F.; Becker,U.; Riplinger,C.
     The ORCA quantum chemistry program package
     J. Chem. Phys., 2020 152 Art. No. L224108
     doi.org/10.1063/5.0004608

List of optional additional citations

  1. Neese,F.
     Approximate second-order SCF convergence for spin unrestricted wavefunctions
     Chem. Phys. Lett., 2000 325(1-3)93-98
     doi.org/10.1016/s0009-2614(00)00662-x

Timings for individual modules:

Sum of individual times          ...       15.651 sec (=   0.261 min)
Startup calculation              ...        0.988 sec (=   0.016 min)   6.3 %
SCF iterations                   ...        6.102 sec (=   0.102 min)  39.0 %
Property integrals               ...        0.721 sec (=   0.012 min)   4.6 %
Property calculations            ...        0.695 sec (=   0.012 min)   4.4 %
CIS module                       ...        7.145 sec (=   0.119 min)  45.7 %
                             ****ORCA TERMINATED NORMALLY****
TOTAL RUN TIME: 0 days 0 hours 0 minutes 16 seconds 385 msec
