
                                 *****************
                                 * O   R   C   A *
                                 *****************

                                            #,                                       
                                            ###                                      
                                            ####                                     
                                            #####                                    
                                            ######                                   
                                           ########,                                 
                                     ,,################,,,,,                         
                               ,,#################################,,                 
                          ,,##########################################,,             
                       ,#########################################, ''#####,          
                    ,#############################################,,   '####,        
                  ,##################################################,,,,####,       
                ,###########''''           ''''###############################       
              ,#####''   ,,,,##########,,,,          '''####'''          '####       
            ,##' ,,,,###########################,,,                        '##       
           ' ,,###''''                  '''############,,,                           
         ,,##''                                '''############,,,,        ,,,,,,###''
      ,#''                                            '''#######################'''  
     '                                                          ''''####''''         
             ,#######,   #######,   ,#######,      ##                                
            ,#'     '#,  ##    ##  ,#'     '#,    #''#        ,####,   ,####,        
            ##       ##  ##   ,#'  ##            #'  '#       #'       #'  '#        
            ##       ##  #######   ##           ,######,      #####,   #    #        
            '#,     ,#'  ##    ##  '#,     ,#' ,#      #,     #,   #   #,  ,#        
             '#######'   ##     ##  '#######'  #'      '#     '####' # '####'        



                #########################################################
                #                        -***-                          #
                #          Department of theory and spectroscopy        #
                #                                                       #
                #                      Frank Neese                      #
                #                                                       #
                #     Directorship, Architecture, Infrastructure        #
                #                    SHARK, DRIVERS                     #
                #        Core code/Algorithms in most modules           #
                #                                                       #
                #        Max Planck Institute fuer Kohlenforschung      #
                #                Kaiser Wilhelm Platz 1                 #
                #                 D-45470 Muelheim/Ruhr                 #
                #                      Germany                          #
                #                                                       #
                #                  All rights reserved                  #
                #                        -***-                          #
                #########################################################


                         Program Version 6.0.0  -   RELEASE  -


 With contributions from (in alphabetic order):
   Daniel Aravena         : Magnetic Suceptibility
   Michael Atanasov       : Ab Initio Ligand Field Theory (pilot matlab implementation)
   Alexander A. Auer      : GIAO ZORA, VPT2 properties, NMR spectrum
   Ute Becker             : All parallelization in ORCA, NUMFREQ, NUMCALC
   Giovanni Bistoni       : ED, misc. LED, open-shell LED, HFLD
   Martin Brehm           : Molecular dynamics
   Dmytro Bykov           : pre 5.0 version of the SCF Hessian
   Marcos Casanova-Páez   : Triplet and SCS-CIS(D). UHF-(DLPNO)-IP/EA/STEOM-CCSD. UHF-CVS-IP/STEOM-CCSD
   Vijay G. Chilkuri      : MRCI spin determinant printing, contributions to CSF-ICE
   Pauline Colinet        : FMM embedding
   Dipayan Datta          : RHF DLPNO-CCSD density
   Achintya Kumar Dutta   : EOM-CC, STEOM-CC
   Nicolas Foglia         : Exact transition moments, OPA infrastructure, MCD improvements
   Dmitry Ganyushin       : Spin-Orbit,Spin-Spin,Magnetic field MRCI
   Miquel Garcia          : C-PCM and meta-GGA Hessian, CCSD/C-PCM, Gaussian charge scheme
   Tiago L. C. Gouveia    : GS-ROHF, GS-ROCIS
   Yang Guo               : DLPNO-NEVPT2, F12-NEVPT2, CIM, IAO-localization
   Andreas Hansen         : Spin unrestricted coupled pair/coupled cluster methods
   Ingolf Harden          : AUTO-CI MPn and infrastructure 
   Benjamin Helmich-Paris : MC-RPA, TRAH-(SCF,CASSCF), AVAS, COSX integrals, SCF dyn. polar.
   Lee Huntington         : MR-EOM, pCC
   Robert Izsak           : Overlap fitted RIJCOSX, COSX-SCS-MP3, EOM
   Riya Kayal             : Wick's Theorem for AUTO-CI, AUTO-CI UHF-CCSDT
   Emily Kempfer          : AUTO-CI, RHF CISDT and CCSDT
   Christian Kollmar      : KDIIS, OOCD, Brueckner-CCSD(T), CCSD density, CASPT2, CASPT2-K, improved NEVPT2
   Axel Koslowski         : Symmetry handling
   Simone Kossmann        : Meta GGA functionals, TD-DFT gradient, OOMP2, (MP2 Hessian; deprecated post 5.0)
   Lucas Lang             : DCDCAS
   Marvin Lechner         : AUTO-CI (C++ implementation), FIC-MRCC
   Spencer Leger          : CASSCF response
   Dagmar Lenk            : GEPOL surface, SMD, ORCA-2-JSON
   Dimitrios Liakos       : Extrapolation schemes; Compound Job, initial MDCI parallelization
   Dimitrios Manganas     : Further ROCIS development; embedding schemes. LFT, Crystal Embedding
   Dimitrios Pantazis     : SARC Basis sets
   Anastasios Papadopoulos: AUTO-CI, single reference methods and gradients
   Taras Petrenko         : pre 6.0 DFT Hessian and TD-DFT gradient, (ASA, deprecated), ECA, 1-Electron XAS/XES, NRVS
   Peter Pinski           : DLPNO-MP2, DLPNO-MP2 Gradient
   Christoph Reimann      : Effective Core Potentials
   Marius Retegan         : Local ZFS, SOC
   Christoph Riplinger    : Optimizer, TS searches, QM/MM, DLPNO-CCSD(T), (RO)-DLPNO pert. Triples
   Michael Roemelt        : Original ROCIS implementation
   Masaaki Saitow         : Open-shell DLPNO-CCSD energy and density
   Barbara Sandhoefer     : DKH picture change effects
   Kantharuban Sivalingam : CASSCF convergence/infrastructure, NEVPT2 and variants, FIC-MRCI
   Bernardo de Souza      : ESD, SOC TD-DFT
   Georgi Stoychev        : AutoAux, RI-MP2 NMR, DLPNO-MP2 response, X2C
   Van Anh Tran           : RI-MP2 g-tensors
   Willem Van den Heuvel  : Paramagnetic NMR
   Zikuan Wang            : NOTCH, Electric field optimization 
   Frank Wennmohs         : Technical directorship and infrastructure
   Hang Xu                : AUTO-CI-Response properties 


 We gratefully acknowledge several colleagues who have allowed us to
 interface, adapt or use parts of their codes:
   Stefan Grimme, W. Hujo, H. Kruse, P. Pracht,  : VdW corrections, initial TS optimization,
                  C. Bannwarth, S. Ehlert,         DFT functionals, gCP, sTDA/sTD-DF
                  L. Wittmann, M. Mueller
   Ed Valeev, F. Pavosevic, A. Kumar             : LibInt (2-el integral package), F12 methods
   Garnet Chan, S. Sharma, J. Yang, R. Olivares  : DMRG
   Ulf Ekstrom                                   : XCFun DFT Library
   Mihaly Kallay                                 : mrcc  (arbitrary order and MRCC methods)
   Frank Weinhold                                : gennbo (NPA and NBO analysis)
   Simon Mueller                                 : openCOSMO-RS
   Christopher J. Cramer and Donald G. Truhlar   : smd solvation model
   Lars Goerigk                                  : TD-DFT with DH, B97 family of functionals
   V. Asgeirsson, H. Jonsson                     : NEB implementation
   FAccTs GmbH                                   : IRC, NEB, NEB-TS, DLPNO-Multilevel, CI-OPT
                                                   MM, QMMM, 2- and 3-layer-ONIOM, Crystal-QMMM,
                                                   LR-CPCM, SF, NACMEs, symmetry and pop. for TD-DFT,
                                                   nearIR, NL-DFT gradient (VV10), updates on ESD,
                                                   ML-optimized integration grids, MBIS, APM,
                                                   GOAT, DOCKER, SOLVATOR, interface openCOSMO-RS
   S Lehtola, MJT Oliveira, MAL Marques          : LibXC Library
   Liviu Ungur et al                             : ANISO software


 Your calculation uses the libint2 library for the computation of 2-el integrals
 For citations please refer to: http://libint.valeyev.net

 Your ORCA version has been built with support for libXC version: 6.2.2
 For citations please refer to: https://libxc.gitlab.io

 This ORCA versions uses:
   CBLAS   interface :  Fast vector & matrix operations
   LAPACKE interface :  Fast linear algebra routines
   SCALAPACK package :  Parallel linear algebra routines
   Shared memory     :  Shared parallel matrices
   BLAS/LAPACK       :  OpenBLAS 0.3.27  USE64BITINT DYNAMIC_ARCH NO_AFFINITY Zen SINGLE_THREADED
        Core in use  :  Zen
   Copyright (c) 2011-2014, The OpenBLAS Project


Your calculation utilizes the atom-pairwise dispersion correction
with the Becke-Johnson damping scheme (D3BJ)


Warning: RI is on but no J-basis has been assigned. Assigning Def2/J (nothing to worry about!)
================================================================================

----- Orbital basis set information -----
Your calculation utilizes the basis: def2-TZVPPD
   F. Weigend and R. Ahlrichs, Phys. Chem. Chem. Phys. 7, 3297 (2005).
   D. Rappoport and F. Furche, J. Chem. Phys. 133, 134105 (2010)
   D. Rappoport, J. Chem. Phys. 155, 124102 (2021).

----- AuxJ basis set information -----
Your calculation utilizes the auxiliary basis: def2/J
   F. Weigend, Phys. Chem. Chem. Phys. 8, 1057 (2006).

================================================================================
                                        WARNINGS
                       Please study these warnings very carefully!
================================================================================

Using LibXC functional ID 531 : wB97M-V exchange-correlation functional
[ 1]  N. Mardirossian and M. Head-Gordon.,  J. Chem. Phys. 144, 214110 (2016)
Using LibXC functional ID 531 : wB97M-V exchange-correlation functional
[ 1]  N. Mardirossian and M. Head-Gordon.,  J. Chem. Phys. 144, 214110 (2016)

WARNING: B97M-V or wB97M-V functional requested.
  ===> : libXC variant has now been activated.
         Any manually given DFX/HFX/RangeSep scaling parameters are IGNORED!

Your calculation utilizes LibXC
 by S Lehtola, C Steigemann, MJT Oliveira & MAL Marques
Please cite in your paper:
 S Lehtola, C Steigemann, MJT Oliveira & MAL Marques, SoftwareX, 7, (2018), 1.
   


WARNING: your system is open-shell and RHF/RKS was chosen
  ===> : WILL SWITCH to UHF/UKS

INFO   : Checking CIS options ...

WARNING: CIS/ROCIS methods need fully converged wavefunctions
  ===> : Setting SCFConvForced true
         You can overwrite this default with %scf ConvForced false 


================================================================================
                                       INPUT FILE
================================================================================
NAME = orca.inp
|  1> ! Engrad def2-TZVPPD wB97M-D3BJ 
|  2> %pal nprocs 8 end%pal nprocs 64 end 
|  3> %tddft 
|  4>  Iroot 2 Nroots 3 
|  5> sf true 
|  6> end 
|  7> *xyz 0 3 
|  8> O   3.42737991 -0.24782376 -0.01216437
|  9> O   -0.34857815 0.74154232 -2.74853594
| 10> O   -0.24491853 -2.72947802 -0.82235018
| 11> O   -3.51155165 -0.7302213 0.00773095
| 12> N   -0.27888074 -1.36265627 1.01486315
| 13> N   -2.02222474 0.7677714 0.80796965
| 14> N   1.50150527 -1.32598561 -0.475849
| 15> N   -1.87716854 -0.0172079 -1.32381015
| 16> C   1.60360926 0.12547325 1.39648447
| 17> C   -0.10662692 1.36248791 -0.46489177
| 18> C   0.15518432 -0.10639548 1.59415206
| 19> C   -0.6068862 1.08488539 0.887394
| 20> C   2.3222705 1.05238138 2.26575212
| 21> C   0.74956493 2.48779384 -0.63425508
| 22> C   2.26267259 -0.43710257 0.26589881
| 23> C   -0.7301147 0.73871518 -1.56458036
| 24> C   0.22638698 -1.86699402 -0.1658108
| 25> C   -2.48910793 -0.07377524 -0.1346667
| 26> H   -0.15750709 -0.09539358 2.61359993
| 27> H   -0.4052318 1.92307311 1.58288197
| 28> H   3.37970946 1.10428321 2.10839701
| 29> H   1.76142246 1.99684914 2.22043698
| 30> H   2.27935646 0.71380766 3.29491353
| 31> H   1.59378626 2.39245662 0.05402899
| 32> H   1.12678433 2.68980448 -1.67863115
| 33> H   0.0856649 3.31945428 -0.2776985
| 34> H   -1.2658386 -1.51356133 1.20198687
| 35> H   -2.48667995 0.67605342 1.75761733
| 36> H   1.97856218 -1.67069866 -1.29096524
| 37> H   -2.26931598 -0.52773095 -2.03808372
| 38> *
| 39> 
| 40>                          ****END OF INPUT****
================================================================================

                     *******************************
                     * Energy+Gradient Calculation *
                     *******************************

---------------------------------
CARTESIAN COORDINATES (ANGSTROEM)
---------------------------------
  O      3.427380   -0.247824   -0.012164
  O     -0.348578    0.741542   -2.748536
  O     -0.244919   -2.729478   -0.822350
  O     -3.511552   -0.730221    0.007731
  N     -0.278881   -1.362656    1.014863
  N     -2.022225    0.767771    0.807970
  N      1.501505   -1.325986   -0.475849
  N     -1.877169   -0.017208   -1.323810
  C      1.603609    0.125473    1.396484
  C     -0.106627    1.362488   -0.464892
  C      0.155184   -0.106395    1.594152
  C     -0.606886    1.084885    0.887394
  C      2.322271    1.052381    2.265752
  C      0.749565    2.487794   -0.634255
  C      2.262673   -0.437103    0.265899
  C     -0.730115    0.738715   -1.564580
  C      0.226387   -1.866994   -0.165811
  C     -2.489108   -0.073775   -0.134667
  H     -0.157507   -0.095394    2.613600
  H     -0.405232    1.923073    1.582882
  H      3.379709    1.104283    2.108397
  H      1.761422    1.996849    2.220437
  H      2.279356    0.713808    3.294914
  H      1.593786    2.392457    0.054029
  H      1.126784    2.689804   -1.678631
  H      0.085665    3.319454   -0.277699
  H     -1.265839   -1.513561    1.201987
  H     -2.486680    0.676053    1.757617
  H      1.978562   -1.670699   -1.290965
  H     -2.269316   -0.527731   -2.038084

----------------------------
CARTESIAN COORDINATES (A.U.)
----------------------------
  NO LB      ZA    FRAG     MASS         X           Y           Z
   0 O     8.0000    0    15.999    6.476809   -0.468319   -0.022987
   1 O     8.0000    0    15.999   -0.658717    1.401312   -5.193980
   2 O     8.0000    0    15.999   -0.462829   -5.157966   -1.554017
   3 O     8.0000    0    15.999   -6.635871   -1.379918    0.014609
   4 N     7.0000    0    14.007   -0.527008   -2.575047    1.917813
   5 N     7.0000    0    14.007   -3.821451    1.450878    1.526841
   6 N     7.0000    0    14.007    2.837434   -2.505750   -0.899224
   7 N     7.0000    0    14.007   -3.547334   -0.032518   -2.501639
   8 C     6.0000    0    12.011    3.030382    0.237110    2.638973
   9 C     6.0000    0    12.011   -0.201496    2.574729   -0.878518
  10 C     6.0000    0    12.011    0.293256   -0.201058    3.012511
  11 C     6.0000    0    12.011   -1.146849    2.050136    1.676932
  12 C     6.0000    0    12.011    4.388455    1.988713    4.281651
  13 C     6.0000    0    12.011    1.416472    4.701249   -1.198568
  14 C     6.0000    0    12.011    4.275832   -0.826004    0.502476
  15 C     6.0000    0    12.011   -1.379717    1.395969   -2.956628
  16 C     6.0000    0    12.011    0.427809   -3.528107   -0.313337
  17 C     6.0000    0    12.011   -4.703732   -0.139415   -0.254483
  18 H     1.0000    0     1.008   -0.297645   -0.180268    4.938988
  19 H     1.0000    0     1.008   -0.765777    3.634082    2.991213
  20 H     1.0000    0     1.008    6.386725    2.086793    3.984293
  21 H     1.0000    0     1.008    3.328606    3.773498    4.196018
  22 H     1.0000    0     1.008    4.307359    1.348901    6.226484
  23 H     1.0000    0     1.008    3.011820    4.521088    0.102100
  24 H     1.0000    0     1.008    2.129314    5.082994   -3.172153
  25 H     1.0000    0     1.008    0.161883    6.272860   -0.524774
  26 H     1.0000    0     1.008   -2.392088   -2.860216    2.271426
  27 H     1.0000    0     1.008   -4.699144    1.277556    3.321415
  28 H     1.0000    0     1.008    3.738941   -3.157163   -2.439571
  29 H     1.0000    0     1.008   -4.288386   -0.997267   -3.851420

--------------------------------
INTERNAL COORDINATES (ANGSTROEM)
--------------------------------
 O      0   0   0     0.000000000000     0.00000000     0.00000000
 O      1   0   0     4.767015196141     0.00000000     0.00000000
 O      2   1   0     3.971009833725    61.28026544     0.00000000
 O      3   2   1     3.918794974929    68.59552587   125.07586482
 N      3   2   1     2.290132735872    82.36049880    63.43151383
 N      4   3   2     2.258862269170    82.16999326   298.51585469
 N      1   2   3     2.255311406411    45.95705660   357.75073208
 N      2   1   3     2.223091103271    96.08095812    42.57677097
 C      1   2   3     2.334476728500    72.20380509   289.54773298
 C      6   4   3     2.375579703942   120.52149091    46.37800129
 C      5   3   2     1.449889406146   146.42981286   324.28425943
 C      6   4   3     1.452602042142   143.76081203     8.40185616
 C      9   1   2     1.459883182544    94.37248786   228.96776030
 C     10   6   4     1.424100365450   138.27476575   150.54872974
 C      1   2   3     1.212307197557    53.34934514   316.39654268
 C      2   1   3     1.243916776605    72.30986560    68.24717511
 C      3   2   1     1.181969327649    69.02370028    36.84897274
 C      4   3   2     1.223351822242    63.41123016   323.24172748
 H     11   5   3     1.066382163832   107.64442854   185.08018162
 H     12   6   4     1.107667218714   112.14244689   189.34266142
 H     13   9   1     1.070341807427   115.44149254   349.57159643
 H     13   9   1     1.099374065350   105.65112488   120.72083063
 H     13   9   1     1.084272561000   110.33014349   235.67351485
 H     14  10   6     1.093404682887   108.68949436    92.21151493
 H     14  10   6     1.128638183830   116.89917333   217.25038414
 H     14  10   6     1.122298949494   101.07653445   337.88623417
 H      5   3   2     1.015811715396    94.21649497   101.88793024
 H      6   4   3     1.061113352136    88.34624070   239.24401463
 H      7   1   2     1.005397864992    85.72216400    84.37728703
 H      8   2   1     0.961561299180    89.17304390   229.87429298

---------------------------
INTERNAL COORDINATES (A.U.)
---------------------------
 O      0   0   0     0.000000000000     0.00000000     0.00000000
 O      1   0   0     9.008353196947     0.00000000     0.00000000
 O      2   1   0     7.504121060848    61.28026544     0.00000000
 O      3   2   1     7.405449277602    68.59552587   125.07586482
 N      3   2   1     4.327723681125    82.36049880    63.43151383
 N      4   3   2     4.268631062980    82.16999326   298.51585469
 N      1   2   3     4.261920904826    45.95705660   357.75073208
 N      2   1   3     4.201033355939    96.08095812    42.57677097
 C      1   2   3     4.411521682878    72.20380509   289.54773298
 C      6   4   3     4.489195049752   120.52149091    46.37800129
 C      5   3   2     2.739893902089   146.42981286   324.28425943
 C      6   4   3     2.745020041224   143.76081203     8.40185616
 C      9   1   2     2.758779402526    94.37248786   228.96776030
 C     10   6   4     2.691159677917   138.27476575   150.54872974
 C      1   2   3     2.290928593564    53.34934514   316.39654268
 C      2   1   3     2.350662041174    72.30986560    68.24717511
 C      3   2   1     2.233598327952    69.02370028    36.84897274
 C      4   3   2     2.311799909471    63.41123016   323.24172748
 H     11   5   3     2.015170243741   107.64442854   185.08018162
 H     12   6   4     2.093187690891   112.14244689   189.34266142
 H     13   9   1     2.022652885724   115.44149254   349.57159643
 H     13   9   1     2.077515902247   105.65112488   120.72083063
 H     13   9   1     2.048978194815   110.33014349   235.67351485
 H     14  10   6     2.066235404204   108.68949436    92.21151493
 H     14  10   6     2.132817071724   116.89917333   217.25038414
 H     14  10   6     2.120837654932   101.07653445   337.88623417
 H      5   3   2     1.919605945727    94.21649497   101.88793024
 H      6   4   3     2.005213632584    88.34624070   239.24401463
 H      7   1   2     1.899926620464    85.72216400    84.37728703
 H      8   2   1     1.817087516427    89.17304390   229.87429298

---------------------
BASIS SET INFORMATION
---------------------
There are 4 groups of distinct atoms

 Group   1 Type O   : 12s7p3d1f contracted to 6s4p3d1f pattern {621111/4111/111/1}
 Group   2 Type N   : 12s6p3d1f contracted to 6s3p3d1f pattern {621111/411/111/1}
 Group   3 Type C   : 12s6p3d1f contracted to 6s3p3d1f pattern {621111/411/111/1}
 Group   4 Type H   : 5s3p1d contracted to 3s3p1d pattern {311/111/1}

Atom   0O    basis set group =>   1
Atom   1O    basis set group =>   1
Atom   2O    basis set group =>   1
Atom   3O    basis set group =>   1
Atom   4N    basis set group =>   2
Atom   5N    basis set group =>   2
Atom   6N    basis set group =>   2
Atom   7N    basis set group =>   2
Atom   8C    basis set group =>   3
Atom   9C    basis set group =>   3
Atom  10C    basis set group =>   3
Atom  11C    basis set group =>   3
Atom  12C    basis set group =>   3
Atom  13C    basis set group =>   3
Atom  14C    basis set group =>   3
Atom  15C    basis set group =>   3
Atom  16C    basis set group =>   3
Atom  17C    basis set group =>   3
Atom  18H    basis set group =>   4
Atom  19H    basis set group =>   4
Atom  20H    basis set group =>   4
Atom  21H    basis set group =>   4
Atom  22H    basis set group =>   4
Atom  23H    basis set group =>   4
Atom  24H    basis set group =>   4
Atom  25H    basis set group =>   4
Atom  26H    basis set group =>   4
Atom  27H    basis set group =>   4
Atom  28H    basis set group =>   4
Atom  29H    basis set group =>   4
---------------------------------
AUXILIARY/J BASIS SET INFORMATION
---------------------------------
There are 4 groups of distinct atoms

 Group   1 Type O   : 12s5p4d2f1g contracted to 6s4p3d1f1g pattern {711111/2111/211/2/1}
 Group   2 Type N   : 12s5p4d2f1g contracted to 6s4p3d1f1g pattern {711111/2111/211/2/1}
 Group   3 Type C   : 12s5p4d2f1g contracted to 6s4p3d1f1g pattern {711111/2111/211/2/1}
 Group   4 Type H   : 5s2p1d contracted to 3s1p1d pattern {311/2/1}

Atom   0O    basis set group =>   1
Atom   1O    basis set group =>   1
Atom   2O    basis set group =>   1
Atom   3O    basis set group =>   1
Atom   4N    basis set group =>   2
Atom   5N    basis set group =>   2
Atom   6N    basis set group =>   2
Atom   7N    basis set group =>   2
Atom   8C    basis set group =>   3
Atom   9C    basis set group =>   3
Atom  10C    basis set group =>   3
Atom  11C    basis set group =>   3
Atom  12C    basis set group =>   3
Atom  13C    basis set group =>   3
Atom  14C    basis set group =>   3
Atom  15C    basis set group =>   3
Atom  16C    basis set group =>   3
Atom  17C    basis set group =>   3
Atom  18H    basis set group =>   4
Atom  19H    basis set group =>   4
Atom  20H    basis set group =>   4
Atom  21H    basis set group =>   4
Atom  22H    basis set group =>   4
Atom  23H    basis set group =>   4
Atom  24H    basis set group =>   4
Atom  25H    basis set group =>   4
Atom  26H    basis set group =>   4
Atom  27H    basis set group =>   4
Atom  28H    basis set group =>   4
Atom  29H    basis set group =>   4
[1741399000.010525] [ohm:1401723:0]        ib_iface.c:1059 UCX  ERROR ibv_create_cq(cqe=256) failed: Connection timed out
[1741399000.016676] [ohm:1401730:0]        ib_iface.c:1059 UCX  ERROR ibv_create_cq(cqe=256) failed: Connection timed out
[1741399000.021224] [ohm:1401724:0]        ib_iface.c:1059 UCX  ERROR ibv_create_cq(cqe=256) failed: Connection timed out
[1741399000.026433] [ohm:1401729:0]        ib_iface.c:1059 UCX  ERROR ibv_create_cq(cqe=256) failed: Connection timed out
[1741399000.098587] [ohm:1401726:0]        ib_iface.c:1059 UCX  ERROR ibv_create_cq(cqe=256) failed: Connection timed out
[1741399000.118438] [ohm:1401734:0]        ib_iface.c:1059 UCX  ERROR ibv_create_cq(cqe=256) failed: Connection timed out
[1741399000.120181] [ohm:1401743:0]        ib_iface.c:1059 UCX  ERROR ibv_create_cq(cqe=256) failed: Connection timed out
[1741399000.122318] [ohm:1401735:0]        ib_iface.c:1059 UCX  ERROR ibv_create_cq(cqe=256) failed: Connection timed out
[1741399000.128989] [ohm:1401757:0]        ib_iface.c:1059 UCX  ERROR ibv_create_cq(cqe=256) failed: Connection timed out
[1741399000.134663] [ohm:1401725:0]        ib_iface.c:1059 UCX  ERROR ibv_create_cq(cqe=256) failed: Connection timed out
[1741399000.138686] [ohm:1401824:0]        ib_iface.c:1059 UCX  ERROR ibv_create_cq(cqe=256) failed: Connection timed out
[1741399000.153074] [ohm:1401798:0]        ib_iface.c:1059 UCX  ERROR ibv_create_cq(cqe=256) failed: Connection timed out
[1741399000.169580] [ohm:1401774:0]        ib_iface.c:1059 UCX  ERROR ibv_create_cq(cqe=256) failed: Connection timed out
[1741399000.171211] [ohm:1401786:0]        ib_iface.c:1059 UCX  ERROR ibv_create_cq(cqe=256) failed: Connection timed out
[1741399000.171945] [ohm:1401794:0]        ib_iface.c:1059 UCX  ERROR ibv_create_cq(cqe=256) failed: Connection timed out
[1741399000.174618] [ohm:1401820:0]        ib_iface.c:1059 UCX  ERROR ibv_create_cq(cqe=256) failed: Connection timed out
[1741399000.176866] [ohm:1401818:0]        ib_iface.c:1059 UCX  ERROR ibv_create_cq(cqe=256) failed: Connection timed out
[1741399000.186773] [ohm:1401810:0]        ib_iface.c:1059 UCX  ERROR ibv_create_cq(cqe=256) failed: Connection timed out
[1741399000.195221] [ohm:1401782:0]        ib_iface.c:1059 UCX  ERROR ibv_create_cq(cqe=256) failed: Connection timed out
[1741399000.229852] [ohm:1401805:0]        ib_iface.c:1059 UCX  ERROR ibv_create_cq(cqe=256) failed: Connection timed out
[1741399000.248409] [ohm:1401814:0]        ib_iface.c:1059 UCX  ERROR ibv_create_cq(cqe=256) failed: Connection timed out
[1741399000.250001] [ohm:1401812:0]        ib_iface.c:1059 UCX  ERROR ibv_create_cq(cqe=256) failed: Connection timed out
[1741399000.252795] [ohm:1401833:0]        ib_iface.c:1059 UCX  ERROR ibv_create_cq(cqe=256) failed: Connection timed out
[1741399000.259270] [ohm:1401808:0]        ib_iface.c:1059 UCX  ERROR ibv_create_cq(cqe=256) failed: Connection timed out
[1741399000.259375] [ohm:1401838:0]        ib_iface.c:1059 UCX  ERROR ibv_create_cq(cqe=256) failed: Connection timed out
[1741399000.261847] [ohm:1401850:0]        ib_iface.c:1059 UCX  ERROR ibv_create_cq(cqe=256) failed: Connection timed out
[1741399000.270127] [ohm:1401802:0]        ib_iface.c:1059 UCX  ERROR ibv_create_cq(cqe=256) failed: Connection timed out
[1741399000.274834] [ohm:1401852:0]        ib_iface.c:1059 UCX  ERROR ibv_create_cq(cqe=256) failed: Connection timed out
[1741399000.295313] [ohm:1401858:0]        ib_iface.c:1059 UCX  ERROR ibv_create_cq(cqe=256) failed: Connection timed out
[1741399000.295397] [ohm:1401844:0]        ib_iface.c:1059 UCX  ERROR ibv_create_cq(cqe=256) failed: Connection timed out
[1741399000.296116] [ohm:1401872:0]        ib_iface.c:1059 UCX  ERROR ibv_create_cq(cqe=256) failed: Connection timed out
[1741399000.299579] [ohm:1401748:0]        ib_iface.c:1059 UCX  ERROR ibv_create_cq(cqe=256) failed: Connection timed out
[1741399000.305501] [ohm:1401784:0]        ib_iface.c:1059 UCX  ERROR ibv_create_cq(cqe=256) failed: Connection timed out
[1741399000.307264] [ohm:1401791:0]        ib_iface.c:1059 UCX  ERROR ibv_create_cq(cqe=256) failed: Connection timed out
[1741399000.311266] [ohm:1401859:0]        ib_iface.c:1059 UCX  ERROR ibv_create_cq(cqe=256) failed: Connection timed out
[1741399000.313290] [ohm:1401841:0]        ib_iface.c:1059 UCX  ERROR ibv_create_cq(cqe=256) failed: Connection timed out
[1741399000.313493] [ohm:1401870:0]        ib_iface.c:1059 UCX  ERROR ibv_create_cq(cqe=256) failed: Connection timed out
[1741399000.317230] [ohm:1401854:0]        ib_iface.c:1059 UCX  ERROR ibv_create_cq(cqe=256) failed: Connection timed out
[1741399000.321293] [ohm:1401771:0]        ib_iface.c:1059 UCX  ERROR ibv_create_cq(cqe=256) failed: Connection timed out
[1741399000.331299] [ohm:1401862:0]        ib_iface.c:1059 UCX  ERROR ibv_create_cq(cqe=256) failed: Connection timed out
[1741399000.343081] [ohm:1401788:0]        ib_iface.c:1059 UCX  ERROR ibv_create_cq(cqe=256) failed: Connection timed out
[1741399000.348385] [ohm:1401827:0]        ib_iface.c:1059 UCX  ERROR ibv_create_cq(cqe=256) failed: Connection timed out
[1741399000.349072] [ohm:1401785:0]        ib_iface.c:1059 UCX  ERROR ibv_create_cq(cqe=256) failed: Connection timed out
[1741399000.349174] [ohm:1401780:0]        ib_iface.c:1059 UCX  ERROR ibv_create_cq(cqe=256) failed: Connection timed out
[1741399000.351063] [ohm:1401745:0]        ib_iface.c:1059 UCX  ERROR ibv_create_cq(cqe=256) failed: Connection timed out
[1741399000.353806] [ohm:1401781:0]        ib_iface.c:1059 UCX  ERROR ibv_create_cq(cqe=256) failed: Connection timed out
[1741399000.357665] [ohm:1401731:0]        ib_iface.c:1059 UCX  ERROR ibv_create_cq(cqe=256) failed: Connection timed out
[1741399000.359308] [ohm:1401783:0]        ib_iface.c:1059 UCX  ERROR ibv_create_cq(cqe=256) failed: Connection timed out
[1741399000.359677] [ohm:1401732:0]        ib_iface.c:1059 UCX  ERROR ibv_create_cq(cqe=256) failed: Connection timed out
[1741399000.365856] [ohm:1401847:0]        ib_iface.c:1059 UCX  ERROR ibv_create_cq(cqe=256) failed: Connection timed out
[1741399000.368418] [ohm:1401767:0]        ib_iface.c:1059 UCX  ERROR ibv_create_cq(cqe=256) failed: Connection timed out
[1741399000.368785] [ohm:1401746:0]        ib_iface.c:1059 UCX  ERROR ibv_create_cq(cqe=256) failed: Connection timed out
[1741399000.370797] [ohm:1401733:0]        ib_iface.c:1059 UCX  ERROR ibv_create_cq(cqe=256) failed: Connection timed out
[1741399000.371674] [ohm:1401776:0]        ib_iface.c:1059 UCX  ERROR ibv_create_cq(cqe=256) failed: Connection timed out
[1741399000.372018] [ohm:1401765:0]        ib_iface.c:1059 UCX  ERROR ibv_create_cq(cqe=256) failed: Connection timed out
[1741399000.374454] [ohm:1401779:0]        ib_iface.c:1059 UCX  ERROR ibv_create_cq(cqe=256) failed: Connection timed out
[1741399000.375598] [ohm:1401778:0]        ib_iface.c:1059 UCX  ERROR ibv_create_cq(cqe=256) failed: Connection timed out
[1741399000.377377] [ohm:1401754:0]        ib_iface.c:1059 UCX  ERROR ibv_create_cq(cqe=256) failed: Connection timed out
[1741399000.377417] [ohm:1401722:0]        ib_iface.c:1059 UCX  ERROR ibv_create_cq(cqe=256) failed: Connection timed out
[1741399000.377995] [ohm:1401751:0]        ib_iface.c:1059 UCX  ERROR ibv_create_cq(cqe=256) failed: Connection timed out
[1741399000.378356] [ohm:1401727:0]        ib_iface.c:1059 UCX  ERROR ibv_create_cq(cqe=256) failed: Connection timed out
[1741399000.378950] [ohm:1401760:0]        ib_iface.c:1059 UCX  ERROR ibv_create_cq(cqe=256) failed: Connection timed out
[1741399000.378957] [ohm:1401762:0]        ib_iface.c:1059 UCX  ERROR ibv_create_cq(cqe=256) failed: Connection timed out
[1741399000.399522] [ohm:1401728:0]        ib_iface.c:1059 UCX  ERROR ibv_create_cq(cqe=256) failed: Connection timed out


           ************************************************************
           *        Program running with 64 parallel MPI-processes    *
           *              working on a common directory               *
           ************************************************************
------------------------------------------------------------------------------
                             ORCA STARTUP CALCULATIONS
                           -- RI-GTO INTEGRALS CHOSEN --
------------------------------------------------------------------------------
------------------------------------------------------------------------------
                   ___                                                        
                  /   \      - P O W E R E D   B Y -                         
                 /     \                                                     
                 |  |  |   _    _      __       _____    __    __             
                 |  |  |  | |  | |    /  \     |  _  \  |  |  /  |          
                  \  \/   | |  | |   /    \    | | | |  |  | /  /          
                 / \  \   | |__| |  /  /\  \   | |_| |  |  |/  /          
                |  |  |   |  __  | /  /__\  \  |    /   |      \           
                |  |  |   | |  | | |   __   |  |    \   |  |\   \          
                \     /   | |  | | |  |  |  |  | |\  \  |  | \   \       
                 \___/    |_|  |_| |__|  |__|  |_| \__\ |__|  \__/        
                                                                              
                      - O R C A' S   B I G   F R I E N D -                    
                                      &                                       
                       - I N T E G R A L  F E E D E R -                       
                                                                              
 v1 FN, 2020, v2 2021, v3 2022-2024                                           
------------------------------------------------------------------------------


----------------------
SHARK INTEGRAL PACKAGE
----------------------

Number of atoms                             ...     30
Number of basis functions                   ...    882
Number of shells                            ...    322
Maximum angular momentum                    ...      3
Integral batch strategy                     ... SHARK/LIBINT Hybrid
RI-J (if used) integral strategy            ... SPLIT-RIJ (Revised 2003 algorithm where possible)
Printlevel                                  ...      1
Contraction scheme used                     ... SEGMENTED contraction
Prescreening option                         ... SCHWARTZ
   Thresh                                   ... 2.500e-11
   Tcut                                     ... 2.500e-12
   Tpresel                                  ... 2.500e-12 
Coulomb Range Separation                    ... NOT USED
Exchange Range Separation                   ... Long Range
   Mu parameter                             ... 3.000e-01
   Scaling (regular/separated)              ... 1.500e-01 8.500e-01
Multipole approximations                    ... NOT USED
Finite Nucleus Model                        ... NOT USED
CABS basis                                  ... NOT available
Auxiliary Coulomb fitting basis             ... AVAILABLE
   # of basis functions in Aux-J            ...   1014
   # of shells in Aux-J                     ...    330
   Maximum angular momentum in Aux-J        ...      4
Auxiliary J/K fitting basis                 ... NOT available
Auxiliary Correlation fitting basis         ... NOT available
Auxiliary 'external' fitting basis          ... NOT available

Checking pre-screening integrals            ... done (  0.0 sec) Dimension = 322
Check shell pair data                       ... done (  0.0 sec)
Shell pair information
Shell pair cut-off parameter TPreSel        ...   2.5e-12
Total number of shell pairs                 ...     52003
Shell pairs after pre-screening             ...     45601
Total number of primitive shell pairs       ...    129718
Primitive shell pairs kept                  ...     85737
          la=0 lb=0:   8817 shell pairs
          la=1 lb=0:  12051 shell pairs
          la=1 lb=1:   4149 shell pairs
          la=2 lb=0:   8198 shell pairs
          la=2 lb=1:   5647 shell pairs
          la=2 lb=2:   1953 shell pairs
          la=3 lb=0:   2119 shell pairs
          la=3 lb=1:   1498 shell pairs
          la=3 lb=2:   1021 shell pairs
          la=3 lb=3:    148 shell pairs

Calculating one electron integrals          ... done (  0.2 sec)
Calculating RI/J V-Matrix + Cholesky decomp.... done (  0.1 sec)
Calculating Nuclear repulsion               ... done (  0.0 sec) ENN=   1480.128430395132 Eh

Diagonalization of the overlap matrix:
Smallest eigenvalue                        ... 4.425e-07
Time for diagonalization                   ...    0.126 sec
Threshold for overlap eigenvalues          ... 1.000e-07
Number of eigenvalues below threshold      ... 0

IMPORTANT:
Smallest eigenvalue of S below the DiffSThresh (1.000e-06) while
Thresh>1e-12 and/or TCut>1e-13! In order to avoid SCF convergence issues,
Thresh will be set to at least 1e-12 and TCut to at least 1e-13.
This can be turned off by adding %SCF DiffSThresh -1 END to the input.

Time for construction of square roots      ...    0.133 sec
Total time needed                          ...    0.274 sec

-------------------
DFT GRID GENERATION
-------------------

General Integration Accuracy     IntAcc      ... 4.388
Radial Grid Type                 RadialGrid  ... OptM3 with GC (2021)
Angular Grid (max. ang.)         AngularGrid ... 4 (Lebedev-302)
Angular grid pruning method      GridPruning ... 4 (adaptive)
Weight generation scheme         WeightScheme... mBecke (2022)
Basis function cutoff            BFCut       ... 1.0000e-11
Integration weight cutoff        WCut        ... 1.0000e-14
Partially contracted basis set               ... off
Rotationally invariant grid construction     ... off
Angular grids for H and He will be reduced by one unit
Diffuse basis detected: some atoms will have their outermost
                        angular grid increased by 1.

Total number of grid points                  ...   151501
Total number of batches                      ...     2382
Average number of points per batch           ...       63
Average number of grid points per atom       ...     5050

--------------------
COSX GRID GENERATION
--------------------

GRIDX 1
-------
General Integration Accuracy     IntAcc      ... 3.816
Radial Grid Type                 RadialGrid  ... OptM3 with GC (2021)
Angular Grid (max. ang.)         AngularGrid ... 1 (Lebedev-50)
Angular grid pruning method      GridPruning ... 4 (adaptive)
Weight generation scheme         WeightScheme... mBecke (2022)
Basis function cutoff            BFCut       ... 1.0000e-11
Integration weight cutoff        WCut        ... 1.0000e-14
Partially contracted basis set               ... on
Rotationally invariant grid construction     ... off
Angular grids for H and He will be reduced by one unit
Diffuse basis detected: some atoms will have their outermost
                        angular grid increased by 1.

Total number of grid points                  ...    18990
Total number of batches                      ...      165
Average number of points per batch           ...      115
Average number of grid points per atom       ...      633
UseSFitting                                  ... on

GRIDX 2
-------
General Integration Accuracy     IntAcc      ... 4.020
Radial Grid Type                 RadialGrid  ... OptM3 with GC (2021)
Angular Grid (max. ang.)         AngularGrid ... 2 (Lebedev-110)
Angular grid pruning method      GridPruning ... 4 (adaptive)
Weight generation scheme         WeightScheme... mBecke (2022)
Basis function cutoff            BFCut       ... 1.0000e-11
Integration weight cutoff        WCut        ... 1.0000e-14
Partially contracted basis set               ... on
Rotationally invariant grid construction     ... off
Angular grids for H and He will be reduced by one unit
Diffuse basis detected: some atoms will have their outermost
                        angular grid increased by 1.

Total number of grid points                  ...    45626
Total number of batches                      ...      372
Average number of points per batch           ...      122
Average number of grid points per atom       ...     1521
UseSFitting                                  ... on

GRIDX 3
-------
General Integration Accuracy     IntAcc      ... 4.338
Radial Grid Type                 RadialGrid  ... OptM3 with GC (2021)
Angular Grid (max. ang.)         AngularGrid ... 3 (Lebedev-194)
Angular grid pruning method      GridPruning ... 4 (adaptive)
Weight generation scheme         WeightScheme... mBecke (2022)
Basis function cutoff            BFCut       ... 1.0000e-11
Integration weight cutoff        WCut        ... 1.0000e-14
Partially contracted basis set               ... on
Rotationally invariant grid construction     ... off
Angular grids for H and He will be reduced by one unit
Diffuse basis detected: some atoms will have their outermost
                        angular grid increased by 1.

Total number of grid points                  ...   100402
Total number of batches                      ...      803
Average number of points per batch           ...      125
Average number of grid points per atom       ...     3347
UseSFitting                                  ... on
Initializing property integral containers    ... done (  0.0 sec)

SHARK setup successfully completed in   4.2 seconds

Maximum memory used throughout the entire STARTUP-calculation: 80.8 MB
[1741399006.623974] [ohm:1402079:0]        ib_iface.c:1059 UCX  ERROR ibv_create_cq(cqe=256) failed: Connection timed out
[1741399006.647329] [ohm:1402080:0]        ib_iface.c:1059 UCX  ERROR ibv_create_cq(cqe=256) failed: Connection timed out
[1741399006.661121] [ohm:1402082:0]        ib_iface.c:1059 UCX  ERROR ibv_create_cq(cqe=256) failed: Connection timed out
[1741399006.664350] [ohm:1402086:0]        ib_iface.c:1059 UCX  ERROR ibv_create_cq(cqe=256) failed: Connection timed out
[1741399006.668608] [ohm:1402088:0]        ib_iface.c:1059 UCX  ERROR ibv_create_cq(cqe=256) failed: Connection timed out
[1741399006.694413] [ohm:1402085:0]        ib_iface.c:1059 UCX  ERROR ibv_create_cq(cqe=256) failed: Connection timed out
[1741399006.699333] [ohm:1402081:0]        ib_iface.c:1059 UCX  ERROR ibv_create_cq(cqe=256) failed: Connection timed out
[1741399006.713542] [ohm:1402093:0]        ib_iface.c:1059 UCX  ERROR ibv_create_cq(cqe=256) failed: Connection timed out
[1741399006.714728] [ohm:1402152:0]        ib_iface.c:1059 UCX  ERROR ibv_create_cq(cqe=256) failed: Connection timed out
[1741399006.716433] [ohm:1402148:0]        ib_iface.c:1059 UCX  ERROR ibv_create_cq(cqe=256) failed: Connection timed out
[1741399006.720885] [ohm:1402083:0]        ib_iface.c:1059 UCX  ERROR ibv_create_cq(cqe=256) failed: Connection timed out
[1741399006.728113] [ohm:1402103:0]        ib_iface.c:1059 UCX  ERROR ibv_create_cq(cqe=256) failed: Connection timed out
[1741399006.737477] [ohm:1402182:0]        ib_iface.c:1059 UCX  ERROR ibv_create_cq(cqe=256) failed: Connection timed out
[1741399006.740862] [ohm:1402134:0]        ib_iface.c:1059 UCX  ERROR ibv_create_cq(cqe=256) failed: Connection timed out
[1741399006.743933] [ohm:1402099:0]        ib_iface.c:1059 UCX  ERROR ibv_create_cq(cqe=256) failed: Connection timed out
[1741399006.750111] [ohm:1402092:0]        ib_iface.c:1059 UCX  ERROR ibv_create_cq(cqe=256) failed: Connection timed out
[1741399006.751804] [ohm:1402091:0]        ib_iface.c:1059 UCX  ERROR ibv_create_cq(cqe=256) failed: Connection timed out
[1741399006.756146] [ohm:1402166:0]        ib_iface.c:1059 UCX  ERROR ibv_create_cq(cqe=256) failed: Connection timed out
[1741399006.763725] [ohm:1402090:0]        ib_iface.c:1059 UCX  ERROR ibv_create_cq(cqe=256) failed: Connection timed out
[1741399006.767689] [ohm:1402098:0]        ib_iface.c:1059 UCX  ERROR ibv_create_cq(cqe=256) failed: Connection timed out
[1741399006.784774] [ohm:1402231:0]        ib_iface.c:1059 UCX  ERROR ibv_create_cq(cqe=256) failed: Connection timed out
[1741399006.810115] [ohm:1402226:0]        ib_iface.c:1059 UCX  ERROR ibv_create_cq(cqe=256) failed: Connection timed out
[1741399006.810352] [ohm:1402107:0]        ib_iface.c:1059 UCX  ERROR ibv_create_cq(cqe=256) failed: Connection timed out
[1741399006.816453] [ohm:1402143:0]        ib_iface.c:1059 UCX  ERROR ibv_create_cq(cqe=256) failed: Connection timed out
[1741399006.816761] [ohm:1402207:0]        ib_iface.c:1059 UCX  ERROR ibv_create_cq(cqe=256) failed: Connection timed out
[1741399006.819061] [ohm:1402112:0]        ib_iface.c:1059 UCX  ERROR ibv_create_cq(cqe=256) failed: Connection timed out
[1741399006.824541] [ohm:1402214:0]        ib_iface.c:1059 UCX  ERROR ibv_create_cq(cqe=256) failed: Connection timed out
[1741399006.885370] [ohm:1402163:0]        ib_iface.c:1059 UCX  ERROR ibv_create_cq(cqe=256) failed: Connection timed out
[1741399006.886228] [ohm:1402104:0]        ib_iface.c:1059 UCX  ERROR ibv_create_cq(cqe=256) failed: Connection timed out
[1741399006.890124] [ohm:1402109:0]        ib_iface.c:1059 UCX  ERROR ibv_create_cq(cqe=256) failed: Connection timed out
[1741399006.894063] [ohm:1402128:0]        ib_iface.c:1059 UCX  ERROR ibv_create_cq(cqe=256) failed: Connection timed out
[1741399006.898887] [ohm:1402199:0]        ib_iface.c:1059 UCX  ERROR ibv_create_cq(cqe=256) failed: Connection timed out
[1741399006.899189] [ohm:1402094:0]        ib_iface.c:1059 UCX  ERROR ibv_create_cq(cqe=256) failed: Connection timed out
[1741399006.900629] [ohm:1402220:0]        ib_iface.c:1059 UCX  ERROR ibv_create_cq(cqe=256) failed: Connection timed out
[1741399006.907784] [ohm:1402126:0]        ib_iface.c:1059 UCX  ERROR ibv_create_cq(cqe=256) failed: Connection timed out
[1741399006.909704] [ohm:1402140:0]        ib_iface.c:1059 UCX  ERROR ibv_create_cq(cqe=256) failed: Connection timed out
[1741399006.912341] [ohm:1402133:0]        ib_iface.c:1059 UCX  ERROR ibv_create_cq(cqe=256) failed: Connection timed out
[1741399006.920179] [ohm:1402102:0]        ib_iface.c:1059 UCX  ERROR ibv_create_cq(cqe=256) failed: Connection timed out
[1741399006.921046] [ohm:1402096:0]        ib_iface.c:1059 UCX  ERROR ibv_create_cq(cqe=256) failed: Connection timed out
[1741399006.922390] [ohm:1402105:0]        ib_iface.c:1059 UCX  ERROR ibv_create_cq(cqe=256) failed: Connection timed out
[1741399006.935457] [ohm:1402212:0]        ib_iface.c:1059 UCX  ERROR ibv_create_cq(cqe=256) failed: Connection timed out
[1741399006.937826] [ohm:1402106:0]        ib_iface.c:1059 UCX  ERROR ibv_create_cq(cqe=256) failed: Connection timed out
[1741399006.938930] [ohm:1402089:0]        ib_iface.c:1059 UCX  ERROR ibv_create_cq(cqe=256) failed: Connection timed out
[1741399006.944746] [ohm:1402095:0]        ib_iface.c:1059 UCX  ERROR ibv_create_cq(cqe=256) failed: Connection timed out
[1741399006.950570] [ohm:1402191:0]        ib_iface.c:1059 UCX  ERROR ibv_create_cq(cqe=256) failed: Connection timed out
[1741399006.958199] [ohm:1402177:0]        ib_iface.c:1059 UCX  ERROR ibv_create_cq(cqe=256) failed: Connection timed out
[1741399006.960764] [ohm:1402117:0]        ib_iface.c:1059 UCX  ERROR ibv_create_cq(cqe=256) failed: Connection timed out
[1741399006.964511] [ohm:1402178:0]        ib_iface.c:1059 UCX  ERROR ibv_create_cq(cqe=256) failed: Connection timed out
[1741399006.964884] [ohm:1402101:0]        ib_iface.c:1059 UCX  ERROR ibv_create_cq(cqe=256) failed: Connection timed out
[1741399006.967717] [ohm:1402192:0]        ib_iface.c:1059 UCX  ERROR ibv_create_cq(cqe=256) failed: Connection timed out
[1741399006.970701] [ohm:1402130:0]        ib_iface.c:1059 UCX  ERROR ibv_create_cq(cqe=256) failed: Connection timed out
[1741399006.970806] [ohm:1402170:0]        ib_iface.c:1059 UCX  ERROR ibv_create_cq(cqe=256) failed: Connection timed out
[1741399006.983289] [ohm:1402122:0]        ib_iface.c:1059 UCX  ERROR ibv_create_cq(cqe=256) failed: Connection timed out
[1741399006.983407] [ohm:1402183:0]        ib_iface.c:1059 UCX  ERROR ibv_create_cq(cqe=256) failed: Connection timed out
[1741399006.988122] [ohm:1402159:0]        ib_iface.c:1059 UCX  ERROR ibv_create_cq(cqe=256) failed: Connection timed out
[1741399006.994237] [ohm:1402100:0]        ib_iface.c:1059 UCX  ERROR ibv_create_cq(cqe=256) failed: Connection timed out
[1741399006.994610] [ohm:1402156:0]        ib_iface.c:1059 UCX  ERROR ibv_create_cq(cqe=256) failed: Connection timed out
[1741399006.995359] [ohm:1402173:0]        ib_iface.c:1059 UCX  ERROR ibv_create_cq(cqe=256) failed: Connection timed out
[1741399006.996667] [ohm:1402186:0]        ib_iface.c:1059 UCX  ERROR ibv_create_cq(cqe=256) failed: Connection timed out
[1741399006.998431] [ohm:1402087:0]        ib_iface.c:1059 UCX  ERROR ibv_create_cq(cqe=256) failed: Connection timed out
[1741399006.999334] [ohm:1402203:0]        ib_iface.c:1059 UCX  ERROR ibv_create_cq(cqe=256) failed: Connection timed out
[1741399006.999500] [ohm:1402084:0]        ib_iface.c:1059 UCX  ERROR ibv_create_cq(cqe=256) failed: Connection timed out
[1741399006.999892] [ohm:1402189:0]        ib_iface.c:1059 UCX  ERROR ibv_create_cq(cqe=256) failed: Connection timed out
[1741399007.000125] [ohm:1402097:0]        ib_iface.c:1059 UCX  ERROR ibv_create_cq(cqe=256) failed: Connection timed out


           ************************************************************
           *        Program running with 64 parallel MPI-processes    *
           *              working on a common directory               *
           ************************************************************
-------------------------------------------------------------------------------
                                 ORCA GUESS
                   Start orbitals & Density for SCF / CASSCF
-------------------------------------------------------------------------------

------------
SCF SETTINGS
------------
Hamiltonian:
 Density Functional     Method          .... DFT(GTOs)
  Functional kind                       .... Exchange-Correlation
  Functional name                       .... wB97M-V exchange-correlation functional
  Functional family                     .... Hybrid MGGA
  Functional refs                              
    [ 0] N. Mardirossian and M. Head-Gordon.,  J. Chem. Phys. 144, 214110 (2016), doi: 10.1063/1.4952647
  Fraction of HF Exchange (short range) .... 0.1500
  Fraction of HF Exchange (long range)  .... 1.0000
  Range separation parameter mu         .... 0.3000
  Functional external parameters        .... 17
    Parameter  0 _cx00      =  8.500000e-01 : u^00 coefficient for exchange
    Parameter  1 _cx01      =  1.007000e+00 : u^01 coefficient for exchange
    Parameter  2 _cx10      =  2.590000e-01 : u^10 coefficient for exchange
    Parameter  3 _css00     =  4.430000e-01 : u^00 coefficient for same-spin correlation
    Parameter  4 _css04     = -1.437000e+00 : u^04 coefficient for same-spin correlation
    Parameter  5 _css10     = -4.535000e+00 : u^10 coefficient for same-spin correlation
    Parameter  6 _css20     = -3.390000e+00 : u^20 coefficient for same-spin correlation
    Parameter  7 _css43     =  4.278000e+00 : u^43 coefficient for same-spin correlation
    Parameter  8 _cos00     =  1.000000e+00 : u^00 coefficient for opposite-spin correlation
    Parameter  9 _cos10     =  1.358000e+00 : u^10 coefficient for opposite-spin correlation
    Parameter 10 _cos20     =  2.924000e+00 : u^20 coefficient for opposite-spin correlation
    Parameter 11 _cos21     = -8.812000e+00 : u^21 coefficient for opposite-spin correlation
    Parameter 12 _cos60     = -1.390000e+00 : u^60 coefficient for opposite-spin correlation
    Parameter 13 _cos61     =  9.142000e+00 : u^61 coefficient for opposite-spin correlation
    Parameter 14 _alpha     =  1.000000e+00 : fraction of HF exchange
    Parameter 15 _beta      = -8.500000e-01 : fraction of short-range exchange
    Parameter 16 _omega     =  3.000000e-01 : range-separation constant
 Long-range corrected/Screened/Range-Separated Hybrid DFT is turned on
   Amount of maximum screened exact exchange              ....  0.850000
   Range separation parameter mu (erf(mu*r12)/r12)        ....  0.300000
 RI-approximation to the Coulomb term is turned on
   Number of AuxJ basis functions       .... 1014
   RIJ-COSX (HFX calculated with COS-X)).... on


General Settings:
 Integral files         IntName         .... orca
 Hartree-Fock type      HFTyp           .... UHF
 Total Charge           Charge          ....    0
 Multiplicity           Mult            ....    3
 Number of Electrons    NEL             ....  132
 Basis Dimension        Dim             ....  882
 Nuclear Repulsion      ENuc            ....   1480.1284303951 Eh

Convergence Acceleration:
 AO-DIIS                CNVDIIS         .... on
   Start iteration      DIISMaxIt       ....    12
   Startup error        DIISStart       ....  0.200000
   # of expansion vecs  DIISMaxEq       ....     5
   Bias factor          DIISBfac        ....   1.050
   Max. coefficient     DIISMaxC        ....  10.000
 MO-DIIS                CNVKDIIS        .... off
 Trust-Rad. Augm. Hess. CNVTRAH         .... auto
   Auto Start mean grad. ratio tolernc. ....  1.125000
   Auto Start start iteration           ....    50
   Auto Start num. interpolation iter.  ....    10
   Max. Number of Micro iterations      ....    24
   Max. Number of Macro iterations      .... Maxiter - #DIIS iter
   Number of Davidson start vectors     ....     2
   Converg. threshold    (grad. norm)   ....   1.000e-05
   Grad. Scal. Fac. for Micro threshold ....   0.100
   Minimum threshold for Micro iter.    ....   1.000e-02
   NR start threshold (gradient norm)   ....   1.000e-04
   Initial trust radius                 ....   0.400
   Minimum AH scaling param. (alpha)    ....   1.000
   Maximum AH scaling param. (alpha)    .... 1000.000
   Quad. conv. algorithm                .... NR
   White noise on init. David. guess    .... on
   Maximum white noise                  ....   0.010
   Pseudo random numbers                .... off
   Inactive MOs                         .... canonical
   Orbital update algorithm             .... Taylor
   Preconditioner                       .... Diag
   Full preconditioner red. dimension   ....   250
 SOSCF                  CNVSOSCF        .... on
   Start iteration      SOSCFMaxIt      ....   150
   Startup grad/error   SOSCFStart      ....  0.003300
   Hessian update       SOSCFHessUp     .... L-BFGS
 Level Shifting         CNVShift        .... on
   Level shift para.    LevelShift      ....    0.2500
   Turn off err/grad.   ShiftErr        ....    0.0010
 Zerner damping         CNVZerner       .... off
 Static damping         CNVDamp         .... on
   Fraction old density DampFac         ....    0.7000
   Max. Damping (<1)    DampMax         ....    0.9800
   Min. Damping (>=0)   DampMin         ....    0.0000
   Turn off err/grad.   DampErr         ....    0.1000

SCF Procedure:
 Maximum # iterations   MaxIter         ....   125
 SCF integral mode      SCFMode         .... Direct
   Integral package                     .... SHARK and LIBINT hybrid scheme
 Reset frequency        DirectResetFreq ....    20
 Integral Threshold     Thresh          ....  1.000e-12 Eh
 Primitive CutOff       TCut            ....  1.000e-13 Eh

Convergence Tolerance:
 Convergence Check Mode ConvCheckMode   .... Total+1el-Energy
 Convergence forced     ConvForced      .... 1
 Energy Change          TolE            ....  1.000e-08 Eh
 1-El. energy change                    ....  1.000e-05 Eh
 Orbital Gradient       TolG            ....  1.000e-05
 Orbital Rotation angle TolX            ....  1.000e-05
 DIIS Error             TolErr          ....  5.000e-07

------------------------------
INITIAL GUESS: MODEL POTENTIAL
------------------------------
Loading Hartree-Fock densities                     ... done
Calculating cut-offs                               ... done
Initializing the effective Hamiltonian             ... done
Setting up the integral package (SHARK)            ... done
Starting the Coulomb interaction                   ... done (   0.1 sec)
Making the grid                                    ... done (   0.3 sec)
Mapping shells                                     ... done
Starting the XC term evaluation                    ... done (   0.1 sec)
  promolecular density results
     # of electrons  =    131.998877276
     EX              =   -113.647550655
     EC              =     -4.520072080
     EX+EC           =   -118.167622735
Transforming the Hamiltonian                       ... done (   0.1 sec)
Diagonalizing the Hamiltonian                      ... done (   0.1 sec)
Back transforming the eigenvectors                 ... done (   0.1 sec)
Now organizing SCF variables                       ... done
                      ------------------
                      INITIAL GUESS DONE (   1.1 sec)
                      ------------------
             **** ENERGY FILE WAS UPDATED (orca.en.tmp) ****
Finished Guess after   3.7 sec
Maximum memory used throughout the entire GUESS-calculation: 73.3 MB
[1741399010.785078] [ohm:1402432:0]        ib_iface.c:1059 UCX  ERROR ibv_create_cq(cqe=256) failed: Connection timed out
[1741399010.790924] [ohm:1402431:0]        ib_iface.c:1059 UCX  ERROR ibv_create_cq(cqe=256) failed: Connection timed out
[1741399010.821900] [ohm:1402428:0]        ib_iface.c:1059 UCX  ERROR ibv_create_cq(cqe=256) failed: Connection timed out
[1741399010.823527] [ohm:1402436:0]        ib_iface.c:1059 UCX  ERROR ibv_create_cq(cqe=256) failed: Connection timed out
[1741399010.833229] [ohm:1402438:0]        ib_iface.c:1059 UCX  ERROR ibv_create_cq(cqe=256) failed: Connection timed out
[1741399010.835791] [ohm:1402429:0]        ib_iface.c:1059 UCX  ERROR ibv_create_cq(cqe=256) failed: Connection timed out
[1741399010.842809] [ohm:1402441:0]        ib_iface.c:1059 UCX  ERROR ibv_create_cq(cqe=256) failed: Connection timed out
[1741399010.842833] [ohm:1402493:0]        ib_iface.c:1059 UCX  ERROR ibv_create_cq(cqe=256) failed: Connection timed out
[1741399010.852437] [ohm:1402439:0]        ib_iface.c:1059 UCX  ERROR ibv_create_cq(cqe=256) failed: Connection timed out
[1741399010.853097] [ohm:1402466:0]        ib_iface.c:1059 UCX  ERROR ibv_create_cq(cqe=256) failed: Connection timed out
[1741399010.859049] [ohm:1402444:0]        ib_iface.c:1059 UCX  ERROR ibv_create_cq(cqe=256) failed: Connection timed out
[1741399010.860118] [ohm:1402443:0]        ib_iface.c:1059 UCX  ERROR ibv_create_cq(cqe=256) failed: Connection timed out
[1741399010.865068] [ohm:1402448:0]        ib_iface.c:1059 UCX  ERROR ibv_create_cq(cqe=256) failed: Connection timed out
[1741399010.885192] [ohm:1402505:0]        ib_iface.c:1059 UCX  ERROR ibv_create_cq(cqe=256) failed: Connection timed out
[1741399010.885960] [ohm:1402530:0]        ib_iface.c:1059 UCX  ERROR ibv_create_cq(cqe=256) failed: Connection timed out
[1741399010.887991] [ohm:1402455:0]        ib_iface.c:1059 UCX  ERROR ibv_create_cq(cqe=256) failed: Connection timed out
[1741399010.913324] [ohm:1402458:0]        ib_iface.c:1059 UCX  ERROR ibv_create_cq(cqe=256) failed: Connection timed out
[1741399010.919028] [ohm:1402534:0]        ib_iface.c:1059 UCX  ERROR ibv_create_cq(cqe=256) failed: Connection timed out
[1741399010.928073] [ohm:1402456:0]        ib_iface.c:1059 UCX  ERROR ibv_create_cq(cqe=256) failed: Connection timed out
[1741399010.939974] [ohm:1402467:0]        ib_iface.c:1059 UCX  ERROR ibv_create_cq(cqe=256) failed: Connection timed out
[1741399010.963655] [ohm:1402475:0]        ib_iface.c:1059 UCX  ERROR ibv_create_cq(cqe=256) failed: Connection timed out
[1741399010.970108] [ohm:1402521:0]        ib_iface.c:1059 UCX  ERROR ibv_create_cq(cqe=256) failed: Connection timed out
[1741399010.973664] [ohm:1402539:0]        ib_iface.c:1059 UCX  ERROR ibv_create_cq(cqe=256) failed: Connection timed out
[1741399010.978483] [ohm:1402484:0]        ib_iface.c:1059 UCX  ERROR ibv_create_cq(cqe=256) failed: Connection timed out
[1741399010.983633] [ohm:1402486:0]        ib_iface.c:1059 UCX  ERROR ibv_create_cq(cqe=256) failed: Connection timed out
[1741399010.985325] [ohm:1402453:0]        ib_iface.c:1059 UCX  ERROR ibv_create_cq(cqe=256) failed: Connection timed out
[1741399010.990094] [ohm:1402492:0]        ib_iface.c:1059 UCX  ERROR ibv_create_cq(cqe=256) failed: Connection timed out
[1741399010.991185] [ohm:1402563:0]        ib_iface.c:1059 UCX  ERROR ibv_create_cq(cqe=256) failed: Connection timed out
[1741399010.997369] [ohm:1402546:0]        ib_iface.c:1059 UCX  ERROR ibv_create_cq(cqe=256) failed: Connection timed out
[1741399010.997620] [ohm:1402435:0]        ib_iface.c:1059 UCX  ERROR ibv_create_cq(cqe=256) failed: Connection timed out
[1741399010.999681] [ohm:1402449:0]        ib_iface.c:1059 UCX  ERROR ibv_create_cq(cqe=256) failed: Connection timed out
[1741399011.008850] [ohm:1402489:0]        ib_iface.c:1059 UCX  ERROR ibv_create_cq(cqe=256) failed: Connection timed out
[1741399011.011151] [ohm:1402567:0]        ib_iface.c:1059 UCX  ERROR ibv_create_cq(cqe=256) failed: Connection timed out
[1741399011.012849] [ohm:1402561:0]        ib_iface.c:1059 UCX  ERROR ibv_create_cq(cqe=256) failed: Connection timed out
[1741399011.022208] [ohm:1402451:0]        ib_iface.c:1059 UCX  ERROR ibv_create_cq(cqe=256) failed: Connection timed out
[1741399011.025334] [ohm:1402538:0]        ib_iface.c:1059 UCX  ERROR ibv_create_cq(cqe=256) failed: Connection timed out
[1741399011.029400] [ohm:1402454:0]        ib_iface.c:1059 UCX  ERROR ibv_create_cq(cqe=256) failed: Connection timed out
[1741399011.030780] [ohm:1402554:0]        ib_iface.c:1059 UCX  ERROR ibv_create_cq(cqe=256) failed: Connection timed out
[1741399011.031967] [ohm:1402446:0]        ib_iface.c:1059 UCX  ERROR ibv_create_cq(cqe=256) failed: Connection timed out
[1741399011.042053] [ohm:1402450:0]        ib_iface.c:1059 UCX  ERROR ibv_create_cq(cqe=256) failed: Connection timed out
[1741399011.046657] [ohm:1402457:0]        ib_iface.c:1059 UCX  ERROR ibv_create_cq(cqe=256) failed: Connection timed out
[1741399011.048667] [ohm:1402479:0]        ib_iface.c:1059 UCX  ERROR ibv_create_cq(cqe=256) failed: Connection timed out
[1741399011.049964] [ohm:1402557:0]        ib_iface.c:1059 UCX  ERROR ibv_create_cq(cqe=256) failed: Connection timed out
[1741399011.051418] [ohm:1402477:0]        ib_iface.c:1059 UCX  ERROR ibv_create_cq(cqe=256) failed: Connection timed out
[1741399011.062884] [ohm:1402569:0]        ib_iface.c:1059 UCX  ERROR ibv_create_cq(cqe=256) failed: Connection timed out
[1741399011.064237] [ohm:1402516:0]        ib_iface.c:1059 UCX  ERROR ibv_create_cq(cqe=256) failed: Connection timed out
[1741399011.066360] [ohm:1402442:0]        ib_iface.c:1059 UCX  ERROR ibv_create_cq(cqe=256) failed: Connection timed out
[1741399011.067802] [ohm:1402430:0]        ib_iface.c:1059 UCX  ERROR ibv_create_cq(cqe=256) failed: Connection timed out
[1741399011.068247] [ohm:1402437:0]        ib_iface.c:1059 UCX  ERROR ibv_create_cq(cqe=256) failed: Connection timed out
[1741399011.070201] [ohm:1402518:0]        ib_iface.c:1059 UCX  ERROR ibv_create_cq(cqe=256) failed: Connection timed out
[1741399011.076730] [ohm:1402545:0]        ib_iface.c:1059 UCX  ERROR ibv_create_cq(cqe=256) failed: Connection timed out
[1741399011.076916] [ohm:1402523:0]        ib_iface.c:1059 UCX  ERROR ibv_create_cq(cqe=256) failed: Connection timed out
[1741399011.078327] [ohm:1402513:0]        ib_iface.c:1059 UCX  ERROR ibv_create_cq(cqe=256) failed: Connection timed out
[1741399011.079222] [ohm:1402529:0]        ib_iface.c:1059 UCX  ERROR ibv_create_cq(cqe=256) failed: Connection timed out
[1741399011.080270] [ohm:1402445:0]        ib_iface.c:1059 UCX  ERROR ibv_create_cq(cqe=256) failed: Connection timed out
[1741399011.082473] [ohm:1402452:0]        ib_iface.c:1059 UCX  ERROR ibv_create_cq(cqe=256) failed: Connection timed out
[1741399011.085284] [ohm:1402500:0]        ib_iface.c:1059 UCX  ERROR ibv_create_cq(cqe=256) failed: Connection timed out
[1741399011.087726] [ohm:1402460:0]        ib_iface.c:1059 UCX  ERROR ibv_create_cq(cqe=256) failed: Connection timed out
[1741399011.087737] [ohm:1402440:0]        ib_iface.c:1059 UCX  ERROR ibv_create_cq(cqe=256) failed: Connection timed out
[1741399011.088225] [ohm:1402508:0]        ib_iface.c:1059 UCX  ERROR ibv_create_cq(cqe=256) failed: Connection timed out
[1741399011.088199] [ohm:1402447:0]        ib_iface.c:1059 UCX  ERROR ibv_create_cq(cqe=256) failed: Connection timed out
[1741399011.088608] [ohm:1402552:0]        ib_iface.c:1059 UCX  ERROR ibv_create_cq(cqe=256) failed: Connection timed out
[1741399011.094661] [ohm:1402433:0]        ib_iface.c:1059 UCX  ERROR ibv_create_cq(cqe=256) failed: Connection timed out
[1741399011.096334] [ohm:1402434:0]        ib_iface.c:1059 UCX  ERROR ibv_create_cq(cqe=256) failed: Connection timed out


           ************************************************************
           *        Program running with 64 parallel MPI-processes    *
           *              working on a common directory               *
           ************************************************************

-------------------------------------------------------------------------------------------
                                      ORCA LEAN-SCF
                              memory conserving SCF solver
-------------------------------------------------------------------------------------------

----------------------------------------D-I-I-S--------------------------------------------
Iteration    Energy (Eh)           Delta-E    RMSDP     MaxDP     DIISErr   Damp  Time(sec)
-------------------------------------------------------------------------------------------
               ***  Starting incremental Fock matrix formation  ***
    1    -908.1163929789845497     0.00e+00  1.83e-03  2.51e-01  1.48e-01  0.700   8.2
    2    -908.3839138274211109    -2.68e-01  1.45e-03  1.92e-01  7.00e-02  0.700   6.9
                               ***Turning on AO-DIIS***
    3    -908.5027688689774550    -1.19e-01  1.04e-03  1.65e-01  2.70e-02  0.700   6.1
    4    -908.5758064116580499    -7.30e-02  2.45e-03  3.25e-01  1.85e-02  0.000   6.0
    5    -908.7399252028981209    -1.64e-01  2.99e-04  6.61e-02  5.12e-03  0.000   6.1
                              *** Initializing SOSCF ***
---------------------------------------S-O-S-C-F--------------------------------------
Iteration    Energy (Eh)           Delta-E    RMSDP     MaxDP     MaxGrad    Time(sec)
--------------------------------------------------------------------------------------
    6    -908.7413086987721726    -1.38e-03  1.43e-04  4.14e-02  2.25e-03     6.8
               *** Restarting incremental Fock matrix formation ***
    7    -908.7419586619134861    -6.50e-04  2.18e-04  3.40e-02  4.97e-03     7.7
    8    -908.7423997553391928    -4.41e-04  2.43e-04  6.31e-02  2.67e-03     6.9
    9    -908.7425838294489040    -1.84e-04  9.89e-05  1.41e-02  1.11e-03     7.1
   10    -908.7426505671496670    -6.67e-05  4.20e-05  1.15e-02  5.83e-04     6.8
   11    -908.7426678306278518    -1.73e-05  1.03e-05  1.77e-03  1.53e-04     6.7
   12    -908.7426709746832785    -3.14e-06  8.15e-06  1.24e-03  1.58e-04     6.4
   13    -908.7426728611349063    -1.89e-06  5.47e-06  8.83e-04  5.33e-05     6.4
   14    -908.7426730853790104    -2.24e-07  1.84e-06  3.07e-04  2.59e-05     6.4
   15    -908.7426731465757257    -6.12e-08  2.18e-06  4.29e-04  1.49e-05     6.2
   16    -908.7426731827090407    -3.61e-08  1.87e-06  4.23e-04  5.03e-06     6.1
   17    -908.7426732362077928    -5.35e-08  1.54e-06  3.55e-04  2.92e-06     5.9
   18    -908.7426731834962084     5.27e-08  2.63e-06  5.27e-04  1.45e-06     5.7
                  *** Gradient check signals convergence ***

               *****************************************************
               *                     SUCCESS                       *
               *           SCF CONVERGED AFTER  18 CYCLES          *
               *****************************************************

Recomputing exchange energy using gridx3       ... done (    7.991 sec)
Old exchange energy                            :    -35.069175337 Eh
New exchange energy                            :    -35.069188660 Eh
Exchange energy change after final integration :     -0.000013324 Eh
Total energy after final integration           :   -908.742686507 Eh
             **** ENERGY FILE WAS UPDATED (orca.en.tmp) ****

----------------
TOTAL SCF ENERGY
----------------

Total Energy       :       -908.74268650710417 Eh          -24728.14565 eV

Components:
Nuclear Repulsion  :       1480.12843039513245 Eh           40276.34220 eV
Electronic Energy  :      -2388.87110357862866 Eh          -65004.48749 eV
One Electron Energy:      -4176.85731586999191 Eh         -113658.06583 eV
Two Electron Energy:       1787.98621229136324 Eh           48653.57834 eV

Virial components:
Potential Energy   :      -1815.16051934312509 Eh          -49393.02882 eV
Kinetic Energy     :        906.41783283602081 Eh           24664.88317 eV
Virial Ratio       :          2.00256488077227

DFT components:
N(Alpha)           :       67.000179871004 electrons
N(Beta)            :       65.000157033281 electrons
N(Total)           :      132.000336904284 electrons
E(XC)              :      -86.387982635733 Eh       

---------------
SCF CONVERGENCE
---------------

  Last Energy change         ...   -5.2712e-08  Tolerance :   1.0000e-08
  Last MAX-Density change    ...    5.2662e-04  Tolerance :   1.0000e-07
  Last RMS-Density change    ...    2.6280e-06  Tolerance :   5.0000e-09
  Last DIIS Error            ...    2.2542e-03  Tolerance :   5.0000e-07
  Last Orbital Gradient      ...    1.4501e-06  Tolerance :   1.0000e-05
  Last Orbital Rotation      ...    8.7983e-06  Tolerance :   1.0000e-05


----------------------
UHF SPIN CONTAMINATION
----------------------

Warning: in a DFT calculation there is little theoretical justification to 
         calculate <S**2> as in Hartree-Fock theory. We will do it anyways
         but you should keep in mind that the values have only limited relevance

Expectation value of <S**2>     :     2.015830
Ideal value S*(S+1) for S=1.0   :     2.000000
Deviation                       :     0.015830

----------------
ORBITAL ENERGIES
----------------
                 SPIN UP ORBITALS
  NO   OCC          E(Eh)            E(eV) 
   0   1.0000     -19.332313      -526.0590 
   1   1.0000     -19.331522      -526.0375 
   2   1.0000     -19.325154      -525.8642 
   3   1.0000     -19.313794      -525.5551 
   4   1.0000     -14.571288      -396.5049 
   5   1.0000     -14.561415      -396.2362 
   6   1.0000     -14.556578      -396.1046 
   7   1.0000     -14.555699      -396.0807 
   8   1.0000     -10.507571      -285.9255 
   9   1.0000     -10.498633      -285.6823 
  10   1.0000     -10.479026      -285.1488 
  11   1.0000     -10.475424      -285.0508 
  12   1.0000     -10.449051      -284.3331 
  13   1.0000     -10.444264      -284.2029 
  14   1.0000     -10.417401      -283.4719 
  15   1.0000     -10.415940      -283.4321 
  16   1.0000     -10.382231      -282.5149 
  17   1.0000     -10.377447      -282.3847 
  18   1.0000      -1.230291       -33.4779 
  19   1.0000      -1.222149       -33.2564 
  20   1.0000      -1.203477       -32.7483 
  21   1.0000      -1.186239       -32.2792 
  22   1.0000      -1.129313       -30.7302 
  23   1.0000      -1.101034       -29.9607 
  24   1.0000      -1.070461       -29.1287 
  25   1.0000      -1.053653       -28.6714 
  26   1.0000      -1.002330       -27.2748 
  27   1.0000      -0.972640       -26.4669 
  28   1.0000      -0.898124       -24.4392 
  29   1.0000      -0.848294       -23.0833 
  30   1.0000      -0.841543       -22.8995 
  31   1.0000      -0.812508       -22.1095 
  32   1.0000      -0.787691       -21.4342 
  33   1.0000      -0.781481       -21.2652 
  34   1.0000      -0.711082       -19.3495 
  35   1.0000      -0.699672       -19.0390 
  36   1.0000      -0.691201       -18.8085 
  37   1.0000      -0.681847       -18.5540 
  38   1.0000      -0.670998       -18.2588 
  39   1.0000      -0.647761       -17.6265 
  40   1.0000      -0.625119       -17.0104 
  41   1.0000      -0.607096       -16.5199 
  42   1.0000      -0.600322       -16.3356 
  43   1.0000      -0.591786       -16.1033 
  44   1.0000      -0.584358       -15.9012 
  45   1.0000      -0.577755       -15.7215 
  46   1.0000      -0.573110       -15.5951 
  47   1.0000      -0.569079       -15.4854 
  48   1.0000      -0.562020       -15.2933 
  49   1.0000      -0.557809       -15.1788 
  50   1.0000      -0.552200       -15.0261 
  51   1.0000      -0.539970       -14.6933 
  52   1.0000      -0.536680       -14.6038 
  53   1.0000      -0.526968       -14.3395 
  54   1.0000      -0.514209       -13.9923 
  55   1.0000      -0.509338       -13.8598 
  56   1.0000      -0.499403       -13.5894 
  57   1.0000      -0.425965       -11.5911 
  58   1.0000      -0.419103       -11.4044 
  59   1.0000      -0.412336       -11.2202 
  60   1.0000      -0.407673       -11.0933 
  61   1.0000      -0.401669       -10.9300 
  62   1.0000      -0.395646       -10.7661 
  63   1.0000      -0.391086       -10.6420 
  64   1.0000      -0.384485       -10.4624 
  65   1.0000      -0.343887        -9.3576 
  66   1.0000      -0.331932        -9.0323 
  67   0.0000       0.003223         0.0877 
  68   0.0000       0.027380         0.7450 
  69   0.0000       0.031274         0.8510 
  70   0.0000       0.038561         1.0493 
  71   0.0000       0.054007         1.4696 
  72   0.0000       0.057454         1.5634 
  73   0.0000       0.058173         1.5830 
  74   0.0000       0.065488         1.7820 
  75   0.0000       0.066900         1.8204 
  76   0.0000       0.071322         1.9408 
  77   0.0000       0.078507         2.1363 

                 SPIN DOWN ORBITALS
  NO   OCC          E(Eh)            E(eV) 
   0   1.0000     -19.327029      -525.9152 
   1   1.0000     -19.326824      -525.9096 
   2   1.0000     -19.325101      -525.8627 
   3   1.0000     -19.313652      -525.5512 
   4   1.0000     -14.570731      -396.4897 
   5   1.0000     -14.561225      -396.2311 
   6   1.0000     -14.555530      -396.0761 
   7   1.0000     -14.555290      -396.0696 
   8   1.0000     -10.507636      -285.9273 
   9   1.0000     -10.498679      -285.6836 
  10   1.0000     -10.480122      -285.1786 
  11   1.0000     -10.476412      -285.0777 
  12   1.0000     -10.448422      -284.3160 
  13   1.0000     -10.443966      -284.1948 
  14   1.0000     -10.406628      -283.1787 
  15   1.0000     -10.404831      -283.1299 
  16   1.0000     -10.382621      -282.5255 
  17   1.0000     -10.378002      -282.3998 
  18   1.0000      -1.229093       -33.4453 
  19   1.0000      -1.220737       -33.2179 
  20   1.0000      -1.197595       -32.5882 
  21   1.0000      -1.179704       -32.1014 
  22   1.0000      -1.126332       -30.6491 
  23   1.0000      -1.098478       -29.8911 
  24   1.0000      -1.068000       -29.0618 
  25   1.0000      -1.051485       -28.6124 
  26   1.0000      -0.988851       -26.9080 
  27   1.0000      -0.956339       -26.0233 
  28   1.0000      -0.892817       -24.2948 
  29   1.0000      -0.842345       -22.9214 
  30   1.0000      -0.832234       -22.6462 
  31   1.0000      -0.807306       -21.9679 
  32   1.0000      -0.785912       -21.3858 
  33   1.0000      -0.779481       -21.2108 
  34   1.0000      -0.705829       -19.2066 
  35   1.0000      -0.694986       -18.9115 
  36   1.0000      -0.683754       -18.6059 
  37   1.0000      -0.676269       -18.4022 
  38   1.0000      -0.657501       -17.8915 
  39   1.0000      -0.643722       -17.5166 
  40   1.0000      -0.621591       -16.9144 
  41   1.0000      -0.602306       -16.3896 
  42   1.0000      -0.591570       -16.0974 
  43   1.0000      -0.583931       -15.8896 
  44   1.0000      -0.576150       -15.6778 
  45   1.0000      -0.572199       -15.5703 
  46   1.0000      -0.566908       -15.4264 
  47   1.0000      -0.561905       -15.2902 
  48   1.0000      -0.556044       -15.1307 
  49   1.0000      -0.548055       -14.9133 
  50   1.0000      -0.546653       -14.8752 
  51   1.0000      -0.530745       -14.4423 
  52   1.0000      -0.528650       -14.3853 
  53   1.0000      -0.517955       -14.0943 
  54   1.0000      -0.504748       -13.7349 
  55   1.0000      -0.502049       -13.6615 
  56   1.0000      -0.493465       -13.4279 
  57   1.0000      -0.423046       -11.5117 
  58   1.0000      -0.414296       -11.2736 
  59   1.0000      -0.407182       -11.0800 
  60   1.0000      -0.394408       -10.7324 
  61   1.0000      -0.390034       -10.6134 
  62   1.0000      -0.385127       -10.4798 
  63   1.0000      -0.382541       -10.4095 
  64   1.0000      -0.376716       -10.2510 
  65   0.0000      -0.064447        -1.7537 
  66   0.0000      -0.059357        -1.6152 
  67   0.0000       0.002878         0.0783 
  68   0.0000       0.027435         0.7465 
  69   0.0000       0.030993         0.8434 
  70   0.0000       0.038406         1.0451 
  71   0.0000       0.056112         1.5269 
  72   0.0000       0.057494         1.5645 
  73   0.0000       0.059523         1.6197 
  74   0.0000       0.065533         1.7833 
  75   0.0000       0.067065         1.8249 
*Only the first 10 virtual orbitals were printed.

                    ********************************
                    * MULLIKEN POPULATION ANALYSIS *
                    ********************************

--------------------------------------------
MULLIKEN ATOMIC CHARGES AND SPIN POPULATIONS
--------------------------------------------
   0 O :   -0.678833    0.163212
   1 O :   -0.705236    0.203282
   2 O :   -0.593831    0.002033
   3 O :   -0.679988    0.005624
   4 N :   -0.286225    0.022840
   5 N :   -0.394070    0.028754
   6 N :    0.037597    0.051273
   7 N :    0.137651    0.020881
   8 C :   -0.532300    0.428630
   9 C :    0.111862    0.364152
  10 C :    0.606650    0.077931
  11 C :    0.760582    0.184142
  12 C :   -1.335939    0.023063
  13 C :   -1.424274   -0.005109
  14 C :    0.781955    0.186466
  15 C :    0.327867    0.134730
  16 C :    0.345029   -0.014840
  17 C :    0.330781   -0.006932
  18 H :    0.604999    0.004004
  19 H :    0.480708    0.026714
  20 H :    0.276079    0.006980
  21 H :    0.356159    0.012922
  22 H :    0.361068    0.018353
  23 H :    0.199987    0.029033
  24 H :    0.331238    0.008887
  25 H :    0.332761    0.024828
  26 H :    0.136697   -0.001226
  27 H :    0.187603   -0.001460
  28 H :    0.001516    0.000165
  29 H :   -0.078095    0.000669
Sum of atomic charges         :   -0.0000000
Sum of atomic spin populations:    2.0000000

-----------------------------------------------------
MULLIKEN REDUCED ORBITAL CHARGES AND SPIN POPULATIONS
-----------------------------------------------------
CHARGE
  0 O s       :     4.096314  s :     4.096314
      pz      :     1.665684  p :     4.551174
      px      :     1.294615
      py      :     1.590875
      dz2     :     0.002955  d :     0.029429
      dxz     :     0.006968
      dyz     :     0.001065
      dx2y2   :     0.007918
      dxy     :     0.010523
      f0      :     0.000195  f :     0.001915
[...]
[1741399330.950286] [ohm:1405310:0]        ib_iface.c:1059 UCX  ERROR ibv_create_cq(cqe=256) failed: Connection timed out
[1741399330.950581] [ohm:1405311:0]        ib_iface.c:1059 UCX  ERROR ibv_create_cq(cqe=256) failed: Connection timed out
[1741399330.951152] [ohm:1405439:0]        ib_iface.c:1059 UCX  ERROR ibv_create_cq(cqe=256) failed: Connection timed out
[1741399330.951864] [ohm:1405322:0]        ib_iface.c:1059 UCX  ERROR ibv_create_cq(cqe=256) failed: Connection timed out
[1741399330.952768] [ohm:1405317:0]        ib_iface.c:1059 UCX  ERROR ibv_create_cq(cqe=256) failed: Connection timed out
[1741399330.952898] [ohm:1405318:0]        ib_iface.c:1059 UCX  ERROR ibv_create_cq(cqe=256) failed: Connection timed out
[1741399330.954296] [ohm:1405324:0]        ib_iface.c:1059 UCX  ERROR ibv_create_cq(cqe=256) failed: Connection timed out
[1741399330.954856] [ohm:1405369:0]        ib_iface.c:1059 UCX  ERROR ibv_create_cq(cqe=256) failed: Connection timed out
[1741399330.954917] [ohm:1405315:0]        ib_iface.c:1059 UCX  ERROR ibv_create_cq(cqe=256) failed: Connection timed out
[1741399330.955896] [ohm:1405382:0]        ib_iface.c:1059 UCX  ERROR ibv_create_cq(cqe=256) failed: Connection timed out


           ************************************************************
           *        Program running with 64 parallel MPI-processes    *
           *              working on a common directory               *
           ************************************************************

------------------------------------------------------------------------------
                              ORCA PROPERTY CALCULATIONS
------------------------------------------------------------------------------

GBWName                                 ... orca.gbw
Number of atoms                         ...     30
Number of basis functions               ...    882
Max core memory                         ...   1024 MB

Electric properties:
Dipole moment                           ... YES
Quadrupole moment                       ...  NO
Static polarizability (Dipole/Dipole)   ...  NO
Static polarizability (Dipole/Quad.)    ...  NO
Static polarizability (Quad./Quad.)     ...  NO
Static polarizability (Velocity)        ...  NO

Atomic electric properties:
Dipole moment                           ...  NO
Quadrupole moment                       ...  NO
Static polarizability                   ...  NO

Choice of electric origin               ... Center of mass
Position of electric origin             ...    -0.014903    -0.082752    -0.043967

General magnetic properties:
Magnetizability                         ...  NO

EPR properties:
g-Tensor (aka g-matrix)                 ...  NO
Zero-Field splitting spin-orbit         ...  NO
Zero-field splitting spin-spin          ...  NO
Hyperfine couplings                     ...  NO (   0 nuclei)
Quadrupole couplings                    ...  NO (   0 nuclei)
Contact density                         ...  NO (   0 nuclei)

NMR properties:
Chemical shifts                         ...  NO (   0 nuclei)
Spin-rotation constants                 ...  NO (   0 nuclei)
Spin-spin couplings                     ...  NO (   0 nuclei,    0 pairs)

Choice of magnetic origin               ... GIAO
Position of magnetic origin             ...     0.000000     0.000000     0.000000

Properties with geometric perturbations:
SCF Hessian                             ...  NO
IR spectrum                             ...  NO
VCD spectrum                            ...  NO
X-ray spectroscopy properties:
SCF XES/XAS/RIXS spectra                ...  NO


-------------
DIPOLE MOMENT
-------------

Method             : SCF
Type of density    : Electron Density
Multiplicity       :   3
Irrep              :   0
Energy             :  -908.7426865071041675 Eh
Relativity type    : 
Basis              : AO
                                X                 Y                 Z
Electronic contribution:     -5.046488173      -8.915223454      -6.732492076
Nuclear contribution   :      5.337882285      10.769834018       9.169236861
                        -----------------------------------------
Total Dipole Moment    :      0.291394111       1.854610564       2.436744785
                        -----------------------------------------
Magnitude (a.u.)       :      3.076071524
Magnitude (Debye)      :      7.818752446



--------------------
Rotational spectrum 
--------------------
 
Rotational constants in cm-1:             0.022181             0.013941             0.013299 
Rotational constants in MHz :           664.975176           417.935091           398.679941 

Dipole components along the rotational axes: 
x,y,z [a.u.] :     1.068765    -1.984619     2.093142 
x,y,z [Debye]:     2.716584    -5.044501     5.320345 

 

-------------
DIPOLE MOMENT
-------------

Method             : TDA/CIS
Type of density    : Electron Density
Level              : Relaxed density
State              :   2
Multiplicity       :   3
Irrep              :   0
Energy             :     0.0000000000000000 Eh
Relativity type    : 
Basis              : AO
                                X                 Y                 Z
Electronic contribution:     -5.098896178      -8.844117825      -6.632065325
Nuclear contribution   :      5.337882285      10.769834018       9.169236861
                        -----------------------------------------
Total Dipole Moment    :      0.238986107       1.925716193       2.537171536
                        -----------------------------------------
Magnitude (a.u.)       :      3.194172290
Magnitude (Debye)      :      8.118940738



--------------------
Rotational spectrum 
--------------------
 
Rotational constants in cm-1:             0.022181             0.013941             0.013299 
Rotational constants in MHz :           664.975176           417.935091           398.679941 

Dipole components along the rotational axes: 
x,y,z [a.u.] :     1.050663    -2.066713     2.197166 
x,y,z [Debye]:     2.670573    -5.253168     5.584753 

 

Dipole moment calculation done in   0.2 sec 

Maximum memory used throughout the entire PROP-calculation: 82.3 MB
[1741399333.497140] [ohm:1405651:0]        ib_iface.c:1059 UCX  ERROR ibv_create_cq(cqe=256) failed: Connection timed out
[1741399333.511098] [ohm:1405650:0]        ib_iface.c:1059 UCX  ERROR ibv_create_cq(cqe=256) failed: Connection timed out
[1741399333.517442] [ohm:1405654:0]        ib_iface.c:1059 UCX  ERROR ibv_create_cq(cqe=256) failed: Connection timed out
[1741399333.520529] [ohm:1405655:0]        ib_iface.c:1059 UCX  ERROR ibv_create_cq(cqe=256) failed: Connection timed out
[1741399333.527186] [ohm:1405648:0]        ib_iface.c:1059 UCX  ERROR ibv_create_cq(cqe=256) failed: Connection timed out
[1741399333.529151] [ohm:1405662:0]        ib_iface.c:1059 UCX  ERROR ibv_create_cq(cqe=256) failed: Connection timed out
[1741399333.542873] [ohm:1405649:0]        ib_iface.c:1059 UCX  ERROR ibv_create_cq(cqe=256) failed: Connection timed out
[1741399333.557190] [ohm:1405656:0]        ib_iface.c:1059 UCX  ERROR ibv_create_cq(cqe=256) failed: Connection timed out
[1741399333.558655] [ohm:1405659:0]        ib_iface.c:1059 UCX  ERROR ibv_create_cq(cqe=256) failed: Connection timed out
[1741399333.561502] [ohm:1405657:0]        ib_iface.c:1059 UCX  ERROR ibv_create_cq(cqe=256) failed: Connection timed out
[1741399333.562349] [ohm:1405673:0]        ib_iface.c:1059 UCX  ERROR ibv_create_cq(cqe=256) failed: Connection timed out
[1741399333.565417] [ohm:1405752:0]        ib_iface.c:1059 UCX  ERROR ibv_create_cq(cqe=256) failed: Connection timed out
[1741399333.596746] [ohm:1405669:0]        ib_iface.c:1059 UCX  ERROR ibv_create_cq(cqe=256) failed: Connection timed out
[1741399333.597518] [ohm:1405708:0]        ib_iface.c:1059 UCX  ERROR ibv_create_cq(cqe=256) failed: Connection timed out
[1741399333.632943] [ohm:1405674:0]        ib_iface.c:1059 UCX  ERROR ibv_create_cq(cqe=256) failed: Connection timed out
[1741399333.636222] [ohm:1405759:0]        ib_iface.c:1059 UCX  ERROR ibv_create_cq(cqe=256) failed: Connection timed out
[1741399333.637259] [ohm:1405679:0]        ib_iface.c:1059 UCX  ERROR ibv_create_cq(cqe=256) failed: Connection timed out
[1741399333.637424] [ohm:1405764:0]        ib_iface.c:1059 UCX  ERROR ibv_create_cq(cqe=256) failed: Connection timed out
[1741399333.637800] [ohm:1405749:0]        ib_iface.c:1059 UCX  ERROR ibv_create_cq(cqe=256) failed: Connection timed out
[1741399333.642244] [ohm:1405789:0]        ib_iface.c:1059 UCX  ERROR ibv_create_cq(cqe=256) failed: Connection timed out
[1741399333.651045] [ohm:1405661:0]        ib_iface.c:1059 UCX  ERROR ibv_create_cq(cqe=256) failed: Connection timed out
[1741399333.651936] [ohm:1405696:0]        ib_iface.c:1059 UCX  ERROR ibv_create_cq(cqe=256) failed: Connection timed out
[1741399333.652716] [ohm:1405783:0]        ib_iface.c:1059 UCX  ERROR ibv_create_cq(cqe=256) failed: Connection timed out
[1741399333.658594] [ohm:1405771:0]        ib_iface.c:1059 UCX  ERROR ibv_create_cq(cqe=256) failed: Connection timed out
[1741399333.663604] [ohm:1405670:0]        ib_iface.c:1059 UCX  ERROR ibv_create_cq(cqe=256) failed: Connection timed out
[1741399333.664641] [ohm:1405772:0]        ib_iface.c:1059 UCX  ERROR ibv_create_cq(cqe=256) failed: Connection timed out
[1741399333.669170] [ohm:1405726:0]        ib_iface.c:1059 UCX  ERROR ibv_create_cq(cqe=256) failed: Connection timed out
[1741399333.674832] [ohm:1405675:0]        ib_iface.c:1059 UCX  ERROR ibv_create_cq(cqe=256) failed: Connection timed out
[1741399333.678207] [ohm:1405682:0]        ib_iface.c:1059 UCX  ERROR ibv_create_cq(cqe=256) failed: Connection timed out
[1741399333.690682] [ohm:1405663:0]        ib_iface.c:1059 UCX  ERROR ibv_create_cq(cqe=256) failed: Connection timed out
[1741399333.691684] [ohm:1405664:0]        ib_iface.c:1059 UCX  ERROR ibv_create_cq(cqe=256) failed: Connection timed out
[1741399333.693724] [ohm:1405667:0]        ib_iface.c:1059 UCX  ERROR ibv_create_cq(cqe=256) failed: Connection timed out
[1741399333.699137] [ohm:1405704:0]        ib_iface.c:1059 UCX  ERROR ibv_create_cq(cqe=256) failed: Connection timed out
[1741399333.699396] [ohm:1405734:0]        ib_iface.c:1059 UCX  ERROR ibv_create_cq(cqe=256) failed: Connection timed out
[1741399333.701817] [ohm:1405737:0]        ib_iface.c:1059 UCX  ERROR ibv_create_cq(cqe=256) failed: Connection timed out
[1741399333.702860] [ohm:1405780:0]        ib_iface.c:1059 UCX  ERROR ibv_create_cq(cqe=256) failed: Connection timed out
[1741399333.706700] [ohm:1405754:0]        ib_iface.c:1059 UCX  ERROR ibv_create_cq(cqe=256) failed: Connection timed out
[1741399333.718719] [ohm:1405712:0]        ib_iface.c:1059 UCX  ERROR ibv_create_cq(cqe=256) failed: Connection timed out
[1741399333.726249] [ohm:1405693:0]        ib_iface.c:1059 UCX  ERROR ibv_create_cq(cqe=256) failed: Connection timed out
[1741399333.750622] [ohm:1405678:0]        ib_iface.c:1059 UCX  ERROR ibv_create_cq(cqe=256) failed: Connection timed out
[1741399333.751943] [ohm:1405671:0]        ib_iface.c:1059 UCX  ERROR ibv_create_cq(cqe=256) failed: Connection timed out
[1741399333.751982] [ohm:1405793:0]        ib_iface.c:1059 UCX  ERROR ibv_create_cq(cqe=256) failed: Connection timed out
[1741399333.753257] [ohm:1405713:0]        ib_iface.c:1059 UCX  ERROR ibv_create_cq(cqe=256) failed: Connection timed out
[1741399333.756518] [ohm:1405685:0]        ib_iface.c:1059 UCX  ERROR ibv_create_cq(cqe=256) failed: Connection timed out
[1741399333.767138] [ohm:1405676:0]        ib_iface.c:1059 UCX  ERROR ibv_create_cq(cqe=256) failed: Connection timed out
[1741399333.768091] [ohm:1405756:0]        ib_iface.c:1059 UCX  ERROR ibv_create_cq(cqe=256) failed: Connection timed out
[1741399333.773228] [ohm:1405665:0]        ib_iface.c:1059 UCX  ERROR ibv_create_cq(cqe=256) failed: Connection timed out
[1741399333.778922] [ohm:1405660:0]        ib_iface.c:1059 UCX  ERROR ibv_create_cq(cqe=256) failed: Connection timed out
[1741399333.779284] [ohm:1405652:0]        ib_iface.c:1059 UCX  ERROR ibv_create_cq(cqe=256) failed: Connection timed out
[1741399333.780045] [ohm:1405743:0]        ib_iface.c:1059 UCX  ERROR ibv_create_cq(cqe=256) failed: Connection timed out
[1741399333.780179] [ohm:1405746:0]        ib_iface.c:1059 UCX  ERROR ibv_create_cq(cqe=256) failed: Connection timed out
[1741399333.781529] [ohm:1405724:0]        ib_iface.c:1059 UCX  ERROR ibv_create_cq(cqe=256) failed: Connection timed out
[1741399333.782144] [ohm:1405653:0]        ib_iface.c:1059 UCX  ERROR ibv_create_cq(cqe=256) failed: Connection timed out
[1741399333.783581] [ohm:1405763:0]        ib_iface.c:1059 UCX  ERROR ibv_create_cq(cqe=256) failed: Connection timed out
[1741399333.783582] [ohm:1405666:0]        ib_iface.c:1059 UCX  ERROR ibv_create_cq(cqe=256) failed: Connection timed out
[1741399333.785383] [ohm:1405668:0]        ib_iface.c:1059 UCX  ERROR ibv_create_cq(cqe=256) failed: Connection timed out
[1741399333.787004] [ohm:1405703:0]        ib_iface.c:1059 UCX  ERROR ibv_create_cq(cqe=256) failed: Connection timed out
[1741399333.787608] [ohm:1405787:0]        ib_iface.c:1059 UCX  ERROR ibv_create_cq(cqe=256) failed: Connection timed out
[1741399333.788516] [ohm:1405658:0]        ib_iface.c:1059 UCX  ERROR ibv_create_cq(cqe=256) failed: Connection timed out
[1741399333.788846] [ohm:1405672:0]        ib_iface.c:1059 UCX  ERROR ibv_create_cq(cqe=256) failed: Connection timed out
[1741399333.789452] [ohm:1405776:0]        ib_iface.c:1059 UCX  ERROR ibv_create_cq(cqe=256) failed: Connection timed out
[1741399333.790220] [ohm:1405700:0]        ib_iface.c:1059 UCX  ERROR ibv_create_cq(cqe=256) failed: Connection timed out
[1741399333.793704] [ohm:1405688:0]        ib_iface.c:1059 UCX  ERROR ibv_create_cq(cqe=256) failed: Connection timed out
[1741399333.793740] [ohm:1405722:0]        ib_iface.c:1059 UCX  ERROR ibv_create_cq(cqe=256) failed: Connection timed out

--------------------------------
SUGGESTED CITATIONS FOR THIS RUN
--------------------------------

Below you find a list of papers that are relevant to this ORCA run
We neither can nor want to force you to cite these papers, but we appreciate if you do
You receive ORCA, which is the product of decades of hard work by many enthusiastic individuals, for free
The only thing we kindly ask in return is that you cite our papers,
We deeply appreciate it, if you show your appreciation for ORCA by not just citing the generic ORCA reference.

Please note that relegating all ORCA citations to the supporting information does *not* help us.
SI sections are not indexed - citations you put there will not count into any citation statistics
But we need these citations in order to attract the funding resources that allow us to do what we are doing

Therefore, if you are a happy ORCA user, please consider citing a few of the papers listed below in the main body of your paper

In addition to the list printed below, the program has created the file orca.bibtex that contains the list in bibtex format
You can import this file easily into all common literature databanks and citation aid programs


List of essential papers. We consider these as the minimum necessary citations

  1. Neese,F.
     Software update: the ORCA program system, version 5.0
     WIRES Comput. Molec. Sci., 2022 12(1)e1606
     doi.org/10.1002/wcms.1606

List of papers to cite with high priority. The work reported in these papers was absolutely
necessary for this run to complete.
Our perspective: the developers of density functionals and basis sets usually get cited in chemistry papers
Good! But without the algorithms to do something with them, the functionals or basis sets would not do anything.
Hence, in our opinion, the algorithm design and method developments papers are equally worthy of getting cited

  1. Neese,F.; Olbrich,G.
     Efficient use of the resolution of the identity approximation in time-dependent density functional calculations with hybrid density functionals
     Chem. Phys. Lett., 2002 362 170-178
     doi.org/10.1016/s0009-2614(02)01053-9
  2. Neese,F.
     An improvement of the resolution of the identity approximation for the formation of the Coulomb matrix
     J. Comp. Chem., 2003 24(14)1740-1747
     doi.org/10.1002/jcc.10318
  3. Neese,F.; Wennmohs,F.; Hansen,A.; Becker,U.
     Efficient, approximate and parallel Hartree-Fock and hybrid DFT calculations. A 'chain-of-spheres' algorithm for the Hartree-Fock exchange
     Chem. Phys., 2009 356(1-3)98-109
     doi.org/10.1016/j.chemphys.2008.10.036
  4. Petrenko,T.; Kossmann,S.; Neese,F.
     Efficient time-dependent density functional theory approximations for hybrid density functionals: Analytical gradients and parallelization
     J. Chem. Phys., 2011 134 054116
     doi.org/10.1063/1.3533441
  5. Helmich-Paris,B.; de Souza,B.; Neese,F.; Izsák,R.
     An improved chain of spheres for exchange algorithm
     J. Chem. Phys., 2021 155 104109
     doi.org/doi: 10.1063/5.0058766.
  6. Neese,F.
     The SHARK Integral Generation and Digestion System
     J. Comp. Chem., 2022  1-16
     doi.org/10.1002/jcc.26942
  7. Lehtola,S.; Steigemann,C.; Oliveira,M.; Marques,M.
     Recent developments in Libxc - A comprehensive library of functionals for density functional theory
     Software X, 2018 7 
     doi.org/10.1016/j.softx.2017.11.002
  8. Grimme,S.; Antony,J.; Ehrlich,S.; Krieg,H.
     A consistent and accurate ab initio parametrization of density functional dispersion correction (DFT-D) for the 94 elements H-Pu
     J. Chem. Phys., 2010 132 154104-XXXX
     doi.org/10.1063/1.3382344
  9. Grimme,S.; Ehrlich,S.; Goerigk,L.
     Effect of the damping function in dispersion corrected density functional theory
     J. Comput. Chem., 2011 32(7)1456-1465
     doi.org/10.1002/jcc.21759

List of suggested additional citations. These are papers that are important in the 'surrounding' of 
of this run, or papers that preceded the highly important papers. If you like your results we are grateful for a citation.

  1. Izsak,R.; Neese,F.
     An overlap fitted chain of spheres exchange method
     J. Chem. Phys., 2011 135 144105
     doi.org/10.1063/1.3646921
  2. Izsak,R.; Hansen,A.; Neese,F.
     The resolution of identity and chain of spheres approximations for the LPNO-CCSD singles Fock term
     Molec. Phys., 2012 110 2413-2417
     doi.org/10.1080/00268976.2012.687466
  3. Neese,F.
     The ORCA program system
     WIRES Comput. Molec. Sci., 2012 2(1)73-78
     doi.org/10.1002/wcms.81
  4. Izsak,R.; Neese,F.; Klopper,W.
     Robust fitting techniques in the chain of spheres approximation to the Fock exchange: The role of the complementary space
     J. Chem. Phys., 2013 139 
     doi.org/10.1063/1.4819264
  5. Neese,F.
     Software update: the ORCA program system, version 4.0
     WIRES Comput. Molec. Sci., 2018 8(1)1-6
     doi.org/10.1002/wcms.1327
  6. Neese,F.; Wennmohs,F.; Becker,U.; Riplinger,C.
     The ORCA quantum chemistry program package
     J. Chem. Phys., 2020 152 Art. No. L224108
     doi.org/10.1063/5.0004608

List of optional additional citations

  1. Neese,F.
     Approximate second-order SCF convergence for spin unrestricted wavefunctions
     Chem. Phys. Lett., 2000 325(1-3)93-98
     doi.org/10.1016/s0009-2614(00)00662-x

Timings for individual modules:

Sum of individual times          ...      333.366 sec (=   5.556 min)
Startup calculation              ...        6.465 sec (=   0.108 min)   1.9 %
SCF iterations                   ...      136.133 sec (=   2.269 min)  40.8 %
Property integrals               ...        4.226 sec (=   0.070 min)   1.3 %
Property calculations            ...        2.850 sec (=   0.048 min)   0.9 %
CIS module                       ...      183.692 sec (=   3.062 min)  55.1 %
                             ****ORCA TERMINATED NORMALLY****
TOTAL RUN TIME: 0 days 0 hours 5 minutes 35 seconds 457 msec
