
                                 *****************
                                 * O   R   C   A *
                                 *****************

                                            #,                                       
                                            ###                                      
                                            ####                                     
                                            #####                                    
                                            ######                                   
                                           ########,                                 
                                     ,,################,,,,,                         
                               ,,#################################,,                 
                          ,,##########################################,,             
                       ,#########################################, ''#####,          
                    ,#############################################,,   '####,        
                  ,##################################################,,,,####,       
                ,###########''''           ''''###############################       
              ,#####''   ,,,,##########,,,,          '''####'''          '####       
            ,##' ,,,,###########################,,,                        '##       
           ' ,,###''''                  '''############,,,                           
         ,,##''                                '''############,,,,        ,,,,,,###''
      ,#''                                            '''#######################'''  
     '                                                          ''''####''''         
             ,#######,   #######,   ,#######,      ##                                
            ,#'     '#,  ##    ##  ,#'     '#,    #''#        ,####,   ,####,        
            ##       ##  ##   ,#'  ##            #'  '#       #'       #'  '#        
            ##       ##  #######   ##           ,######,      #####,   #    #        
            '#,     ,#'  ##    ##  '#,     ,#' ,#      #,     #,   #   #,  ,#        
             '#######'   ##     ##  '#######'  #'      '#     '####' # '####'        



                #########################################################
                #                        -***-                          #
                #          Department of theory and spectroscopy        #
                #                                                       #
                #                      Frank Neese                      #
                #                                                       #
                #     Directorship, Architecture, Infrastructure        #
                #                    SHARK, DRIVERS                     #
                #        Core code/Algorithms in most modules           #
                #                                                       #
                #        Max Planck Institute fuer Kohlenforschung      #
                #                Kaiser Wilhelm Platz 1                 #
                #                 D-45470 Muelheim/Ruhr                 #
                #                      Germany                          #
                #                                                       #
                #                  All rights reserved                  #
                #                        -***-                          #
                #########################################################


                         Program Version 6.0.0  -   RELEASE  -


 With contributions from (in alphabetic order):
   Daniel Aravena         : Magnetic Suceptibility
   Michael Atanasov       : Ab Initio Ligand Field Theory (pilot matlab implementation)
   Alexander A. Auer      : GIAO ZORA, VPT2 properties, NMR spectrum
   Ute Becker             : All parallelization in ORCA, NUMFREQ, NUMCALC
   Giovanni Bistoni       : ED, misc. LED, open-shell LED, HFLD
   Martin Brehm           : Molecular dynamics
   Dmytro Bykov           : pre 5.0 version of the SCF Hessian
   Marcos Casanova-Páez   : Triplet and SCS-CIS(D). UHF-(DLPNO)-IP/EA/STEOM-CCSD. UHF-CVS-IP/STEOM-CCSD
   Vijay G. Chilkuri      : MRCI spin determinant printing, contributions to CSF-ICE
   Pauline Colinet        : FMM embedding
   Dipayan Datta          : RHF DLPNO-CCSD density
   Achintya Kumar Dutta   : EOM-CC, STEOM-CC
   Nicolas Foglia         : Exact transition moments, OPA infrastructure, MCD improvements
   Dmitry Ganyushin       : Spin-Orbit,Spin-Spin,Magnetic field MRCI
   Miquel Garcia          : C-PCM and meta-GGA Hessian, CCSD/C-PCM, Gaussian charge scheme
   Tiago L. C. Gouveia    : GS-ROHF, GS-ROCIS
   Yang Guo               : DLPNO-NEVPT2, F12-NEVPT2, CIM, IAO-localization
   Andreas Hansen         : Spin unrestricted coupled pair/coupled cluster methods
   Ingolf Harden          : AUTO-CI MPn and infrastructure 
   Benjamin Helmich-Paris : MC-RPA, TRAH-(SCF,CASSCF), AVAS, COSX integrals, SCF dyn. polar.
   Lee Huntington         : MR-EOM, pCC
   Robert Izsak           : Overlap fitted RIJCOSX, COSX-SCS-MP3, EOM
   Riya Kayal             : Wick's Theorem for AUTO-CI, AUTO-CI UHF-CCSDT
   Emily Kempfer          : AUTO-CI, RHF CISDT and CCSDT
   Christian Kollmar      : KDIIS, OOCD, Brueckner-CCSD(T), CCSD density, CASPT2, CASPT2-K, improved NEVPT2
   Axel Koslowski         : Symmetry handling
   Simone Kossmann        : Meta GGA functionals, TD-DFT gradient, OOMP2, (MP2 Hessian; deprecated post 5.0)
   Lucas Lang             : DCDCAS
   Marvin Lechner         : AUTO-CI (C++ implementation), FIC-MRCC
   Spencer Leger          : CASSCF response
   Dagmar Lenk            : GEPOL surface, SMD, ORCA-2-JSON
   Dimitrios Liakos       : Extrapolation schemes; Compound Job, initial MDCI parallelization
   Dimitrios Manganas     : Further ROCIS development; embedding schemes. LFT, Crystal Embedding
   Dimitrios Pantazis     : SARC Basis sets
   Anastasios Papadopoulos: AUTO-CI, single reference methods and gradients
   Taras Petrenko         : pre 6.0 DFT Hessian and TD-DFT gradient, (ASA, deprecated), ECA, 1-Electron XAS/XES, NRVS
   Peter Pinski           : DLPNO-MP2, DLPNO-MP2 Gradient
   Christoph Reimann      : Effective Core Potentials
   Marius Retegan         : Local ZFS, SOC
   Christoph Riplinger    : Optimizer, TS searches, QM/MM, DLPNO-CCSD(T), (RO)-DLPNO pert. Triples
   Michael Roemelt        : Original ROCIS implementation
   Masaaki Saitow         : Open-shell DLPNO-CCSD energy and density
   Barbara Sandhoefer     : DKH picture change effects
   Kantharuban Sivalingam : CASSCF convergence/infrastructure, NEVPT2 and variants, FIC-MRCI
   Bernardo de Souza      : ESD, SOC TD-DFT
   Georgi Stoychev        : AutoAux, RI-MP2 NMR, DLPNO-MP2 response, X2C
   Van Anh Tran           : RI-MP2 g-tensors
   Willem Van den Heuvel  : Paramagnetic NMR
   Zikuan Wang            : NOTCH, Electric field optimization 
   Frank Wennmohs         : Technical directorship and infrastructure
   Hang Xu                : AUTO-CI-Response properties 


 We gratefully acknowledge several colleagues who have allowed us to
 interface, adapt or use parts of their codes:
   Stefan Grimme, W. Hujo, H. Kruse, P. Pracht,  : VdW corrections, initial TS optimization,
                  C. Bannwarth, S. Ehlert,         DFT functionals, gCP, sTDA/sTD-DF
                  L. Wittmann, M. Mueller
   Ed Valeev, F. Pavosevic, A. Kumar             : LibInt (2-el integral package), F12 methods
   Garnet Chan, S. Sharma, J. Yang, R. Olivares  : DMRG
   Ulf Ekstrom                                   : XCFun DFT Library
   Mihaly Kallay                                 : mrcc  (arbitrary order and MRCC methods)
   Frank Weinhold                                : gennbo (NPA and NBO analysis)
   Simon Mueller                                 : openCOSMO-RS
   Christopher J. Cramer and Donald G. Truhlar   : smd solvation model
   Lars Goerigk                                  : TD-DFT with DH, B97 family of functionals
   V. Asgeirsson, H. Jonsson                     : NEB implementation
   FAccTs GmbH                                   : IRC, NEB, NEB-TS, DLPNO-Multilevel, CI-OPT
                                                   MM, QMMM, 2- and 3-layer-ONIOM, Crystal-QMMM,
                                                   LR-CPCM, SF, NACMEs, symmetry and pop. for TD-DFT,
                                                   nearIR, NL-DFT gradient (VV10), updates on ESD,
                                                   ML-optimized integration grids, MBIS, APM,
                                                   GOAT, DOCKER, SOLVATOR, interface openCOSMO-RS
   S Lehtola, MJT Oliveira, MAL Marques          : LibXC Library
   Liviu Ungur et al                             : ANISO software


 Your calculation uses the libint2 library for the computation of 2-el integrals
 For citations please refer to: http://libint.valeyev.net

 Your ORCA version has been built with support for libXC version: 6.2.2
 For citations please refer to: https://libxc.gitlab.io

 This ORCA versions uses:
   CBLAS   interface :  Fast vector & matrix operations
   LAPACKE interface :  Fast linear algebra routines
   SCALAPACK package :  Parallel linear algebra routines
   Shared memory     :  Shared parallel matrices
   BLAS/LAPACK       :  OpenBLAS 0.3.27  USE64BITINT DYNAMIC_ARCH NO_AFFINITY Zen SINGLE_THREADED
        Core in use  :  Zen
   Copyright (c) 2011-2014, The OpenBLAS Project


Your calculation utilizes the atom-pairwise dispersion correction
with the Becke-Johnson damping scheme (D3BJ)


Warning: RI is on but no J-basis has been assigned. Assigning Def2/J (nothing to worry about!)
================================================================================

----- Orbital basis set information -----
Your calculation utilizes the basis: def2-TZVPPD
   F. Weigend and R. Ahlrichs, Phys. Chem. Chem. Phys. 7, 3297 (2005).
   D. Rappoport and F. Furche, J. Chem. Phys. 133, 134105 (2010)
   D. Rappoport, J. Chem. Phys. 155, 124102 (2021).

----- AuxJ basis set information -----
Your calculation utilizes the auxiliary basis: def2/J
   F. Weigend, Phys. Chem. Chem. Phys. 8, 1057 (2006).

================================================================================
                                        WARNINGS
                       Please study these warnings very carefully!
================================================================================

Using LibXC functional ID 531 : wB97M-V exchange-correlation functional
[ 1]  N. Mardirossian and M. Head-Gordon.,  J. Chem. Phys. 144, 214110 (2016)
Using LibXC functional ID 531 : wB97M-V exchange-correlation functional
[ 1]  N. Mardirossian and M. Head-Gordon.,  J. Chem. Phys. 144, 214110 (2016)

WARNING: B97M-V or wB97M-V functional requested.
  ===> : libXC variant has now been activated.
         Any manually given DFX/HFX/RangeSep scaling parameters are IGNORED!

Your calculation utilizes LibXC
 by S Lehtola, C Steigemann, MJT Oliveira & MAL Marques
Please cite in your paper:
 S Lehtola, C Steigemann, MJT Oliveira & MAL Marques, SoftwareX, 7, (2018), 1.
   


WARNING: your system is open-shell and RHF/RKS was chosen
  ===> : WILL SWITCH to UHF/UKS

INFO   : Checking CIS options ...

WARNING: CIS/ROCIS methods need fully converged wavefunctions
  ===> : Setting SCFConvForced true
         You can overwrite this default with %scf ConvForced false 


================================================================================
                                       INPUT FILE
================================================================================
NAME = orca.inp
|  1> ! Engrad def2-TZVPPD wB97M-D3BJ 
|  2> %pal nprocs 8 end%pal nprocs 32 end 
|  3> %tddft Nroots 2 Iroot 1 
|  4> sf true 
|  5> end 
|  6> *xyz 0 3 
|  7> O   0.81327338 1.38951878 -0.00041788
|  8> C   0.52211397 0.22269398 0.21592016
|  9> C   -0.46015738 -0.80236879 -0.23992649
| 10> H   1.17847554 -0.25877339 0.96298809
| 11> H   0.11253427 -1.6560018 -0.61861709
| 12> H   -1.17785539 -0.47652898 -0.99369917
| 13> H   -0.99229294 -1.15539026 0.65458613
| 14> *
| 15> 
| 16>                          ****END OF INPUT****
================================================================================

                     *******************************
                     * Energy+Gradient Calculation *
                     *******************************

---------------------------------
CARTESIAN COORDINATES (ANGSTROEM)
---------------------------------
  O      0.813273    1.389519   -0.000418
  C      0.522114    0.222694    0.215920
  C     -0.460157   -0.802369   -0.239926
  H      1.178476   -0.258773    0.962988
  H      0.112534   -1.656002   -0.618617
  H     -1.177855   -0.476529   -0.993699
  H     -0.992293   -1.155390    0.654586

----------------------------
CARTESIAN COORDINATES (A.U.)
----------------------------
  NO LB      ZA    FRAG     MASS         X           Y           Z
   0 O     8.0000    0    15.999    1.536864    2.625810   -0.000790
   1 C     6.0000    0    12.011    0.986652    0.420831    0.408030
   2 C     6.0000    0    12.011   -0.869571   -1.516257   -0.453395
   3 H     1.0000    0     1.008    2.226996   -0.489011    1.819784
   4 H     1.0000    0     1.008    0.212659   -3.129390   -1.169017
   5 H     1.0000    0     1.008   -2.225824   -0.900509   -1.877819
   6 H     1.0000    0     1.008   -1.875162   -2.183371    1.236989

--------------------------------
INTERNAL COORDINATES (ANGSTROEM)
--------------------------------
 O      0   0   0     0.000000000000     0.00000000     0.00000000
 C      1   0   0     1.221906732725     0.00000000     0.00000000
 C      2   1   0     1.491109270237   139.40288037     0.00000000
 H      2   1   3     1.104867336372   113.22134278   178.68589451
 H      3   2   1     1.095477800902   107.27643818   122.38734525
 H      3   2   1     1.090612336467   116.06602341   359.28846145
 H      3   2   1     1.099065621261   106.91459860   236.31820109

---------------------------
INTERNAL COORDINATES (A.U.)
---------------------------
 O      0   0   0     0.000000000000     0.00000000     0.00000000
 C      1   0   0     2.309069086044     0.00000000     0.00000000
 C      2   1   0     2.817788156499   139.40288037     0.00000000
 H      2   1   3     2.087896680058   113.22134278   178.68589451
 H      3   2   1     2.070153029496   107.27643818   122.38734525
 H      3   2   1     2.060958634198   116.06602341   359.28846145
 H      3   2   1     2.076933027390   106.91459860   236.31820109

---------------------
BASIS SET INFORMATION
---------------------
There are 3 groups of distinct atoms

 Group   1 Type O   : 12s7p3d1f contracted to 6s4p3d1f pattern {621111/4111/111/1}
 Group   2 Type C   : 12s6p3d1f contracted to 6s3p3d1f pattern {621111/411/111/1}
 Group   3 Type H   : 5s3p1d contracted to 3s3p1d pattern {311/111/1}

Atom   0O    basis set group =>   1
Atom   1C    basis set group =>   2
Atom   2C    basis set group =>   2
Atom   3H    basis set group =>   3
Atom   4H    basis set group =>   3
Atom   5H    basis set group =>   3
Atom   6H    basis set group =>   3
---------------------------------
AUXILIARY/J BASIS SET INFORMATION
---------------------------------
There are 3 groups of distinct atoms

 Group   1 Type O   : 12s5p4d2f1g contracted to 6s4p3d1f1g pattern {711111/2111/211/2/1}
 Group   2 Type C   : 12s5p4d2f1g contracted to 6s4p3d1f1g pattern {711111/2111/211/2/1}
 Group   3 Type H   : 5s2p1d contracted to 3s1p1d pattern {311/2/1}

Atom   0O    basis set group =>   1
Atom   1C    basis set group =>   2
Atom   2C    basis set group =>   2
Atom   3H    basis set group =>   3
Atom   4H    basis set group =>   3
Atom   5H    basis set group =>   3
Atom   6H    basis set group =>   3
[1741042058.122632] [ohm:243175:0]        ib_iface.c:1059 UCX  ERROR ibv_create_cq(cqe=256) failed: Connection timed out
[1741042058.124504] [ohm:243172:0]        ib_iface.c:1059 UCX  ERROR ibv_create_cq(cqe=256) failed: Connection timed out
[1741042058.126494] [ohm:243182:0]        ib_iface.c:1059 UCX  ERROR ibv_create_cq(cqe=256) failed: Connection timed out
[1741042058.126756] [ohm:243200:0]        ib_iface.c:1059 UCX  ERROR ibv_create_cq(cqe=256) failed: Connection timed out
[1741042058.126817] [ohm:243183:0]        ib_iface.c:1059 UCX  ERROR ibv_create_cq(cqe=256) failed: Connection timed out
[1741042058.126839] [ohm:243169:0]        ib_iface.c:1059 UCX  ERROR ibv_create_cq(cqe=256) failed: Connection timed out
[1741042058.129785] [ohm:243186:0]        ib_iface.c:1059 UCX  ERROR ibv_create_cq(cqe=256) failed: Connection timed out
[1741042058.131468] [ohm:243187:0]        ib_iface.c:1059 UCX  ERROR ibv_create_cq(cqe=256) failed: Connection timed out
[1741042058.132720] [ohm:243178:0]        ib_iface.c:1059 UCX  ERROR ibv_create_cq(cqe=256) failed: Connection timed out
[1741042058.133951] [ohm:243168:0]        ib_iface.c:1059 UCX  ERROR ibv_create_cq(cqe=256) failed: Connection timed out
[1741042058.135740] [ohm:243220:0]        ib_iface.c:1059 UCX  ERROR ibv_create_cq(cqe=256) failed: Connection timed out
[1741042058.136144] [ohm:243181:0]        ib_iface.c:1059 UCX  ERROR ibv_create_cq(cqe=256) failed: Connection timed out
[1741042058.136338] [ohm:243210:0]        ib_iface.c:1059 UCX  ERROR ibv_create_cq(cqe=256) failed: Connection timed out
[1741042058.137073] [ohm:243171:0]        ib_iface.c:1059 UCX  ERROR ibv_create_cq(cqe=256) failed: Connection timed out
[1741042058.138155] [ohm:243179:0]        ib_iface.c:1059 UCX  ERROR ibv_create_cq(cqe=256) failed: Connection timed out
[1741042058.139240] [ohm:243173:0]        ib_iface.c:1059 UCX  ERROR ibv_create_cq(cqe=256) failed: Connection timed out
[1741042058.142528] [ohm:243176:0]        ib_iface.c:1059 UCX  ERROR ibv_create_cq(cqe=256) failed: Connection timed out
[1741042058.142967] [ohm:243170:0]        ib_iface.c:1059 UCX  ERROR ibv_create_cq(cqe=256) failed: Connection timed out
[1741042058.143792] [ohm:243167:0]        ib_iface.c:1059 UCX  ERROR ibv_create_cq(cqe=256) failed: Connection timed out
[1741042058.144173] [ohm:243166:0]        ib_iface.c:1059 UCX  ERROR ibv_create_cq(cqe=256) failed: Connection timed out
[1741042058.144479] [ohm:243213:0]        ib_iface.c:1059 UCX  ERROR ibv_create_cq(cqe=256) failed: Connection timed out
[1741042058.144802] [ohm:243193:0]        ib_iface.c:1059 UCX  ERROR ibv_create_cq(cqe=256) failed: Connection timed out
[1741042058.145806] [ohm:243180:0]        ib_iface.c:1059 UCX  ERROR ibv_create_cq(cqe=256) failed: Connection timed out
[1741042058.149220] [ohm:243189:0]        ib_iface.c:1059 UCX  ERROR ibv_create_cq(cqe=256) failed: Connection timed out
[1741042058.149650] [ohm:243185:0]        ib_iface.c:1059 UCX  ERROR ibv_create_cq(cqe=256) failed: Connection timed out
[1741042058.150363] [ohm:243174:0]        ib_iface.c:1059 UCX  ERROR ibv_create_cq(cqe=256) failed: Connection timed out
[1741042058.153289] [ohm:243184:0]        ib_iface.c:1059 UCX  ERROR ibv_create_cq(cqe=256) failed: Connection timed out
[1741042058.153602] [ohm:243188:0]        ib_iface.c:1059 UCX  ERROR ibv_create_cq(cqe=256) failed: Connection timed out
[1741042058.160304] [ohm:243201:0]        ib_iface.c:1059 UCX  ERROR ibv_create_cq(cqe=256) failed: Connection timed out
[1741042058.162063] [ohm:243177:0]        ib_iface.c:1059 UCX  ERROR ibv_create_cq(cqe=256) failed: Connection timed out
[1741042058.169676] [ohm:243226:0]        ib_iface.c:1059 UCX  ERROR ibv_create_cq(cqe=256) failed: Connection timed out
[1741042058.170028] [ohm:243198:0]        ib_iface.c:1059 UCX  ERROR ibv_create_cq(cqe=256) failed: Connection timed out


           ************************************************************
           *        Program running with 32 parallel MPI-processes    *
           *              working on a common directory               *
           ************************************************************
------------------------------------------------------------------------------
                             ORCA STARTUP CALCULATIONS
                           -- RI-GTO INTEGRALS CHOSEN --
------------------------------------------------------------------------------
------------------------------------------------------------------------------
                   ___                                                        
                  /   \      - P O W E R E D   B Y -                         
                 /     \                                                     
                 |  |  |   _    _      __       _____    __    __             
                 |  |  |  | |  | |    /  \     |  _  \  |  |  /  |          
                  \  \/   | |  | |   /    \    | | | |  |  | /  /          
                 / \  \   | |__| |  /  /\  \   | |_| |  |  |/  /          
                |  |  |   |  __  | /  /__\  \  |    /   |      \           
                |  |  |   | |  | | |   __   |  |    \   |  |\   \          
                \     /   | |  | | |  |  |  |  | |\  \  |  | \   \       
                 \___/    |_|  |_| |__|  |__|  |_| \__\ |__|  \__/        
                                                                              
                      - O R C A' S   B I G   F R I E N D -                    
                                      &                                       
                       - I N T E G R A L  F E E D E R -                       
                                                                              
 v1 FN, 2020, v2 2021, v3 2022-2024                                           
------------------------------------------------------------------------------


----------------------
SHARK INTEGRAL PACKAGE
----------------------

Number of atoms                             ...      7
Number of basis functions                   ...    182
Number of shells                            ...     68
Maximum angular momentum                    ...      3
Integral batch strategy                     ... SHARK/LIBINT Hybrid
RI-J (if used) integral strategy            ... SPLIT-RIJ (Revised 2003 algorithm where possible)
Printlevel                                  ...      1
Contraction scheme used                     ... SEGMENTED contraction
Prescreening option                         ... SCHWARTZ
   Thresh                                   ... 2.500e-11
   Tcut                                     ... 2.500e-12
   Tpresel                                  ... 2.500e-12 
Coulomb Range Separation                    ... NOT USED
Exchange Range Separation                   ... Long Range
   Mu parameter                             ... 3.000e-01
   Scaling (regular/separated)              ... 1.500e-01 8.500e-01
Multipole approximations                    ... NOT USED
Finite Nucleus Model                        ... NOT USED
CABS basis                                  ... NOT available
Auxiliary Coulomb fitting basis             ... AVAILABLE
   # of basis functions in Aux-J            ...    191
   # of shells in Aux-J                     ...     65
   Maximum angular momentum in Aux-J        ...      4
Auxiliary J/K fitting basis                 ... NOT available
Auxiliary Correlation fitting basis         ... NOT available
Auxiliary 'external' fitting basis          ... NOT available

Checking pre-screening integrals            ... done (  0.0 sec) Dimension = 68
Check shell pair data                       ... done (  0.0 sec)
Shell pair information
Shell pair cut-off parameter TPreSel        ...   2.5e-12
Total number of shell pairs                 ...      2346
Shell pairs after pre-screening             ...      2321
Total number of primitive shell pairs       ...      5434
Primitive shell pairs kept                  ...      4796
          la=0 lb=0:    453 shell pairs
          la=1 lb=0:    653 shell pairs
          la=1 lb=1:    253 shell pairs
          la=2 lb=0:    384 shell pairs
          la=2 lb=1:    286 shell pairs
          la=2 lb=2:     91 shell pairs
          la=3 lb=0:     90 shell pairs
          la=3 lb=1:     66 shell pairs
          la=3 lb=2:     39 shell pairs
          la=3 lb=3:      6 shell pairs

Calculating one electron integrals          ... done (  0.1 sec)
Calculating RI/J V-Matrix + Cholesky decomp.... done (  0.6 sec)
Calculating Nuclear repulsion               ... done (  0.0 sec) ENN=     68.898297670235 Eh

Diagonalization of the overlap matrix:
Smallest eigenvalue                        ... 1.345e-05
Time for diagonalization                   ...    0.039 sec
Threshold for overlap eigenvalues          ... 1.000e-07
Number of eigenvalues below threshold      ... 0
Time for construction of square roots      ...    0.091 sec
Total time needed                          ...    0.338 sec

-------------------
DFT GRID GENERATION
-------------------

General Integration Accuracy     IntAcc      ... 4.388
Radial Grid Type                 RadialGrid  ... OptM3 with GC (2021)
Angular Grid (max. ang.)         AngularGrid ... 4 (Lebedev-302)
Angular grid pruning method      GridPruning ... 4 (adaptive)
Weight generation scheme         WeightScheme... mBecke (2022)
Basis function cutoff            BFCut       ... 1.0000e-11
Integration weight cutoff        WCut        ... 1.0000e-14
Partially contracted basis set               ... off
Rotationally invariant grid construction     ... off
Angular grids for H and He will be reduced by one unit
Diffuse basis detected: some atoms will have their outermost
                        angular grid increased by 1.

Total number of grid points                  ...    33139
Total number of batches                      ...      520
Average number of points per batch           ...       63
Average number of grid points per atom       ...     4734

--------------------
COSX GRID GENERATION
--------------------

GRIDX 1
-------
General Integration Accuracy     IntAcc      ... 3.816
Radial Grid Type                 RadialGrid  ... OptM3 with GC (2021)
Angular Grid (max. ang.)         AngularGrid ... 1 (Lebedev-50)
Angular grid pruning method      GridPruning ... 4 (adaptive)
Weight generation scheme         WeightScheme... mBecke (2022)
Basis function cutoff            BFCut       ... 1.0000e-11
Integration weight cutoff        WCut        ... 1.0000e-14
Partially contracted basis set               ... on
Rotationally invariant grid construction     ... off
Angular grids for H and He will be reduced by one unit
Diffuse basis detected: some atoms will have their outermost
                        angular grid increased by 1.

Total number of grid points                  ...     4178
Total number of batches                      ...       37
Average number of points per batch           ...      112
Average number of grid points per atom       ...      597
UseSFitting                                  ... on

GRIDX 2
-------
General Integration Accuracy     IntAcc      ... 4.020
Radial Grid Type                 RadialGrid  ... OptM3 with GC (2021)
Angular Grid (max. ang.)         AngularGrid ... 2 (Lebedev-110)
Angular grid pruning method      GridPruning ... 4 (adaptive)
Weight generation scheme         WeightScheme... mBecke (2022)
Basis function cutoff            BFCut       ... 1.0000e-11
Integration weight cutoff        WCut        ... 1.0000e-14
Partially contracted basis set               ... on
Rotationally invariant grid construction     ... off
Angular grids for H and He will be reduced by one unit
Diffuse basis detected: some atoms will have their outermost
                        angular grid increased by 1.

Total number of grid points                  ...    10289
Total number of batches                      ...       84
Average number of points per batch           ...      122
Average number of grid points per atom       ...     1470
UseSFitting                                  ... on

GRIDX 3
-------
General Integration Accuracy     IntAcc      ... 4.338
Radial Grid Type                 RadialGrid  ... OptM3 with GC (2021)
Angular Grid (max. ang.)         AngularGrid ... 3 (Lebedev-194)
Angular grid pruning method      GridPruning ... 4 (adaptive)
Weight generation scheme         WeightScheme... mBecke (2022)
Basis function cutoff            BFCut       ... 1.0000e-11
Integration weight cutoff        WCut        ... 1.0000e-14
Partially contracted basis set               ... on
Rotationally invariant grid construction     ... off
Angular grids for H and He will be reduced by one unit
Diffuse basis detected: some atoms will have their outermost
                        angular grid increased by 1.

Total number of grid points                  ...    23157
Total number of batches                      ...      184
Average number of points per batch           ...      125
Average number of grid points per atom       ...     3308
UseSFitting                                  ... on
Initializing property integral containers    ... done (  0.0 sec)

SHARK setup successfully completed in   4.1 seconds

Maximum memory used throughout the entire STARTUP-calculation: 13.8 MB
[1741042063.227159] [ohm:243362:0]        ib_iface.c:1059 UCX  ERROR ibv_create_cq(cqe=256) failed: Connection timed out
[1741042063.227132] [ohm:243365:0]        ib_iface.c:1059 UCX  ERROR ibv_create_cq(cqe=256) failed: Connection timed out
[1741042063.227167] [ohm:243370:0]        ib_iface.c:1059 UCX  ERROR ibv_create_cq(cqe=256) failed: Connection timed out
[1741042063.227194] [ohm:243367:0]        ib_iface.c:1059 UCX  ERROR ibv_create_cq(cqe=256) failed: Connection timed out
[1741042063.227281] [ohm:243356:0]        ib_iface.c:1059 UCX  ERROR ibv_create_cq(cqe=256) failed: Connection timed out
[1741042063.230022] [ohm:243359:0]        ib_iface.c:1059 UCX  ERROR ibv_create_cq(cqe=256) failed: Connection timed out
[1741042063.258560] [ohm:243399:0]        ib_iface.c:1059 UCX  ERROR ibv_create_cq(cqe=256) failed: Connection timed out
[1741042063.271648] [ohm:243375:0]        ib_iface.c:1059 UCX  ERROR ibv_create_cq(cqe=256) failed: Connection timed out
[1741042063.271768] [ohm:243363:0]        ib_iface.c:1059 UCX  ERROR ibv_create_cq(cqe=256) failed: Connection timed out
[1741042063.295446] [ohm:243371:0]        ib_iface.c:1059 UCX  ERROR ibv_create_cq(cqe=256) failed: Connection timed out
[1741042063.299908] [ohm:243385:0]        ib_iface.c:1059 UCX  ERROR ibv_create_cq(cqe=256) failed: Connection timed out
[1741042063.299895] [ohm:243410:0]        ib_iface.c:1059 UCX  ERROR ibv_create_cq(cqe=256) failed: Connection timed out
[1741042063.300425] [ohm:243377:0]        ib_iface.c:1059 UCX  ERROR ibv_create_cq(cqe=256) failed: Connection timed out
[1741042063.300430] [ohm:243405:0]        ib_iface.c:1059 UCX  ERROR ibv_create_cq(cqe=256) failed: Connection timed out
[1741042063.306018] [ohm:243357:0]        ib_iface.c:1059 UCX  ERROR ibv_create_cq(cqe=256) failed: Connection timed out
[1741042063.313048] [ohm:243396:0]        ib_iface.c:1059 UCX  ERROR ibv_create_cq(cqe=256) failed: Connection timed out
[1741042063.313043] [ohm:243378:0]        ib_iface.c:1059 UCX  ERROR ibv_create_cq(cqe=256) failed: Connection timed out
[1741042063.314710] [ohm:243374:0]        ib_iface.c:1059 UCX  ERROR ibv_create_cq(cqe=256) failed: Connection timed out
[1741042063.316379] [ohm:243369:0]        ib_iface.c:1059 UCX  ERROR ibv_create_cq(cqe=256) failed: Connection timed out
[1741042063.316465] [ohm:243373:0]        ib_iface.c:1059 UCX  ERROR ibv_create_cq(cqe=256) failed: Connection timed out
[1741042063.318232] [ohm:243360:0]        ib_iface.c:1059 UCX  ERROR ibv_create_cq(cqe=256) failed: Connection timed out
[1741042063.319239] [ohm:243358:0]        ib_iface.c:1059 UCX  ERROR ibv_create_cq(cqe=256) failed: Connection timed out
[1741042063.319373] [ohm:243402:0]        ib_iface.c:1059 UCX  ERROR ibv_create_cq(cqe=256) failed: Connection timed out
[1741042063.319366] [ohm:243361:0]        ib_iface.c:1059 UCX  ERROR ibv_create_cq(cqe=256) failed: Connection timed out
[1741042063.319450] [ohm:243368:0]        ib_iface.c:1059 UCX  ERROR ibv_create_cq(cqe=256) failed: Connection timed out
[1741042063.319638] [ohm:243366:0]        ib_iface.c:1059 UCX  ERROR ibv_create_cq(cqe=256) failed: Connection timed out
[1741042063.319815] [ohm:243364:0]        ib_iface.c:1059 UCX  ERROR ibv_create_cq(cqe=256) failed: Connection timed out
[1741042063.320294] [ohm:243372:0]        ib_iface.c:1059 UCX  ERROR ibv_create_cq(cqe=256) failed: Connection timed out
[1741042063.320515] [ohm:243379:0]        ib_iface.c:1059 UCX  ERROR ibv_create_cq(cqe=256) failed: Connection timed out
[1741042063.320714] [ohm:243384:0]        ib_iface.c:1059 UCX  ERROR ibv_create_cq(cqe=256) failed: Connection timed out
[1741042063.320834] [ohm:243391:0]        ib_iface.c:1059 UCX  ERROR ibv_create_cq(cqe=256) failed: Connection timed out
[1741042063.321807] [ohm:243376:0]        ib_iface.c:1059 UCX  ERROR ibv_create_cq(cqe=256) failed: Connection timed out


           ************************************************************
           *        Program running with 32 parallel MPI-processes    *
           *              working on a common directory               *
           ************************************************************
-------------------------------------------------------------------------------
                                 ORCA GUESS
                   Start orbitals & Density for SCF / CASSCF
-------------------------------------------------------------------------------

------------
SCF SETTINGS
------------
Hamiltonian:
 Density Functional     Method          .... DFT(GTOs)
  Functional kind                       .... Exchange-Correlation
  Functional name                       .... wB97M-V exchange-correlation functional
  Functional family                     .... Hybrid MGGA
  Functional refs                              
    [ 0] N. Mardirossian and M. Head-Gordon.,  J. Chem. Phys. 144, 214110 (2016), doi: 10.1063/1.4952647
  Fraction of HF Exchange (short range) .... 0.1500
  Fraction of HF Exchange (long range)  .... 1.0000
  Range separation parameter mu         .... 0.3000
  Functional external parameters        .... 17
    Parameter  0 _cx00      =  8.500000e-01 : u^00 coefficient for exchange
    Parameter  1 _cx01      =  1.007000e+00 : u^01 coefficient for exchange
    Parameter  2 _cx10      =  2.590000e-01 : u^10 coefficient for exchange
    Parameter  3 _css00     =  4.430000e-01 : u^00 coefficient for same-spin correlation
    Parameter  4 _css04     = -1.437000e+00 : u^04 coefficient for same-spin correlation
    Parameter  5 _css10     = -4.535000e+00 : u^10 coefficient for same-spin correlation
    Parameter  6 _css20     = -3.390000e+00 : u^20 coefficient for same-spin correlation
    Parameter  7 _css43     =  4.278000e+00 : u^43 coefficient for same-spin correlation
    Parameter  8 _cos00     =  1.000000e+00 : u^00 coefficient for opposite-spin correlation
    Parameter  9 _cos10     =  1.358000e+00 : u^10 coefficient for opposite-spin correlation
    Parameter 10 _cos20     =  2.924000e+00 : u^20 coefficient for opposite-spin correlation
    Parameter 11 _cos21     = -8.812000e+00 : u^21 coefficient for opposite-spin correlation
    Parameter 12 _cos60     = -1.390000e+00 : u^60 coefficient for opposite-spin correlation
    Parameter 13 _cos61     =  9.142000e+00 : u^61 coefficient for opposite-spin correlation
    Parameter 14 _alpha     =  1.000000e+00 : fraction of HF exchange
    Parameter 15 _beta      = -8.500000e-01 : fraction of short-range exchange
    Parameter 16 _omega     =  3.000000e-01 : range-separation constant
 Long-range corrected/Screened/Range-Separated Hybrid DFT is turned on
   Amount of maximum screened exact exchange              ....  0.850000
   Range separation parameter mu (erf(mu*r12)/r12)        ....  0.300000
 RI-approximation to the Coulomb term is turned on
   Number of AuxJ basis functions       .... 191
   RIJ-COSX (HFX calculated with COS-X)).... on


General Settings:
 Integral files         IntName         .... orca
 Hartree-Fock type      HFTyp           .... UHF
 Total Charge           Charge          ....    0
 Multiplicity           Mult            ....    3
 Number of Electrons    NEL             ....   24
 Basis Dimension        Dim             ....  182
 Nuclear Repulsion      ENuc            ....     68.8982976702 Eh

Convergence Acceleration:
 AO-DIIS                CNVDIIS         .... on
   Start iteration      DIISMaxIt       ....    12
   Startup error        DIISStart       ....  0.200000
   # of expansion vecs  DIISMaxEq       ....     5
   Bias factor          DIISBfac        ....   1.050
   Max. coefficient     DIISMaxC        ....  10.000
 MO-DIIS                CNVKDIIS        .... off
 Trust-Rad. Augm. Hess. CNVTRAH         .... auto
   Auto Start mean grad. ratio tolernc. ....  1.125000
   Auto Start start iteration           ....    50
   Auto Start num. interpolation iter.  ....    10
   Max. Number of Micro iterations      ....    24
   Max. Number of Macro iterations      .... Maxiter - #DIIS iter
   Number of Davidson start vectors     ....     2
   Converg. threshold    (grad. norm)   ....   1.000e-05
   Grad. Scal. Fac. for Micro threshold ....   0.100
   Minimum threshold for Micro iter.    ....   1.000e-02
   NR start threshold (gradient norm)   ....   1.000e-04
   Initial trust radius                 ....   0.400
   Minimum AH scaling param. (alpha)    ....   1.000
   Maximum AH scaling param. (alpha)    .... 1000.000
   Quad. conv. algorithm                .... NR
   White noise on init. David. guess    .... on
   Maximum white noise                  ....   0.010
   Pseudo random numbers                .... off
   Inactive MOs                         .... canonical
   Orbital update algorithm             .... Taylor
   Preconditioner                       .... Diag
   Full preconditioner red. dimension   ....   250
 SOSCF                  CNVSOSCF        .... on
   Start iteration      SOSCFMaxIt      ....   150
   Startup grad/error   SOSCFStart      ....  0.003300
   Hessian update       SOSCFHessUp     .... L-BFGS
 Level Shifting         CNVShift        .... on
   Level shift para.    LevelShift      ....    0.2500
   Turn off err/grad.   ShiftErr        ....    0.0010
 Zerner damping         CNVZerner       .... off
 Static damping         CNVDamp         .... on
   Fraction old density DampFac         ....    0.7000
   Max. Damping (<1)    DampMax         ....    0.9800
   Min. Damping (>=0)   DampMin         ....    0.0000
   Turn off err/grad.   DampErr         ....    0.1000

SCF Procedure:
 Maximum # iterations   MaxIter         ....   125
 SCF integral mode      SCFMode         .... Direct
   Integral package                     .... SHARK and LIBINT hybrid scheme
 Reset frequency        DirectResetFreq ....    20
 Integral Threshold     Thresh          ....  2.500e-11 Eh
 Primitive CutOff       TCut            ....  2.500e-12 Eh

Convergence Tolerance:
 Convergence Check Mode ConvCheckMode   .... Total+1el-Energy
 Convergence forced     ConvForced      .... 1
 Energy Change          TolE            ....  1.000e-08 Eh
 1-El. energy change                    ....  1.000e-05 Eh
 Orbital Gradient       TolG            ....  1.000e-05
 Orbital Rotation angle TolX            ....  1.000e-05
 DIIS Error             TolErr          ....  5.000e-07

------------------------------
INITIAL GUESS: MODEL POTENTIAL
------------------------------
Loading Hartree-Fock densities                     ... done
Calculating cut-offs                               ... done
Initializing the effective Hamiltonian             ... done
Setting up the integral package (SHARK)            ... done
Starting the Coulomb interaction                   ... done (   0.0 sec)
Making the grid                                    ... done (   0.0 sec)
Mapping shells                                     ... done
Starting the XC term evaluation                    ... done (   0.0 sec)
  promolecular density results
     # of electrons  =     23.997985348
     EX              =    -19.512775224
     EC              =     -0.770985534
     EX+EC           =    -20.283760758
Transforming the Hamiltonian                       ... done (   0.0 sec)
Diagonalizing the Hamiltonian                      ... done (   0.0 sec)
Back transforming the eigenvectors                 ... done (   0.0 sec)
Now organizing SCF variables                       ... done
                      ------------------
                      INITIAL GUESS DONE (   0.1 sec)
                      ------------------
             **** ENERGY FILE WAS UPDATED (orca.en.tmp) ****
Finished Guess after   0.7 sec
Maximum memory used throughout the entire GUESS-calculation: 9.6 MB
[1741042064.203153] [ohm:243527:0]        ib_iface.c:1059 UCX  ERROR ibv_create_cq(cqe=256) failed: Connection timed out
[1741042064.203160] [ohm:243529:0]        ib_iface.c:1059 UCX  ERROR ibv_create_cq(cqe=256) failed: Connection timed out
[1741042064.205650] [ohm:243543:0]        ib_iface.c:1059 UCX  ERROR ibv_create_cq(cqe=256) failed: Connection timed out
[1741042064.207546] [ohm:243535:0]        ib_iface.c:1059 UCX  ERROR ibv_create_cq(cqe=256) failed: Connection timed out
[1741042064.207942] [ohm:243532:0]        ib_iface.c:1059 UCX  ERROR ibv_create_cq(cqe=256) failed: Connection timed out
[1741042064.211185] [ohm:243526:0]        ib_iface.c:1059 UCX  ERROR ibv_create_cq(cqe=256) failed: Connection timed out
[1741042064.240256] [ohm:243554:0]        ib_iface.c:1059 UCX  ERROR ibv_create_cq(cqe=256) failed: Connection timed out
[1741042064.240304] [ohm:243538:0]        ib_iface.c:1059 UCX  ERROR ibv_create_cq(cqe=256) failed: Connection timed out
[1741042064.240359] [ohm:243539:0]        ib_iface.c:1059 UCX  ERROR ibv_create_cq(cqe=256) failed: Connection timed out
[1741042064.287874] [ohm:243546:0]        ib_iface.c:1059 UCX  ERROR ibv_create_cq(cqe=256) failed: Connection timed out
[1741042064.287870] [ohm:243542:0]        ib_iface.c:1059 UCX  ERROR ibv_create_cq(cqe=256) failed: Connection timed out
[1741042064.287875] [ohm:243547:0]        ib_iface.c:1059 UCX  ERROR ibv_create_cq(cqe=256) failed: Connection timed out
[1741042064.288874] [ohm:243581:0]        ib_iface.c:1059 UCX  ERROR ibv_create_cq(cqe=256) failed: Connection timed out
[1741042064.289787] [ohm:243575:0]        ib_iface.c:1059 UCX  ERROR ibv_create_cq(cqe=256) failed: Connection timed out
[1741042064.290121] [ohm:243568:0]        ib_iface.c:1059 UCX  ERROR ibv_create_cq(cqe=256) failed: Connection timed out
[1741042064.291214] [ohm:243544:0]        ib_iface.c:1059 UCX  ERROR ibv_create_cq(cqe=256) failed: Connection timed out
[1741042064.291527] [ohm:243557:0]        ib_iface.c:1059 UCX  ERROR ibv_create_cq(cqe=256) failed: Connection timed out
[1741042064.291757] [ohm:243558:0]        ib_iface.c:1059 UCX  ERROR ibv_create_cq(cqe=256) failed: Connection timed out
[1741042064.293851] [ohm:243540:0]        ib_iface.c:1059 UCX  ERROR ibv_create_cq(cqe=256) failed: Connection timed out
[1741042064.294154] [ohm:243530:0]        ib_iface.c:1059 UCX  ERROR ibv_create_cq(cqe=256) failed: Connection timed out
[1741042064.294877] [ohm:243537:0]        ib_iface.c:1059 UCX  ERROR ibv_create_cq(cqe=256) failed: Connection timed out
[1741042064.295463] [ohm:243549:0]        ib_iface.c:1059 UCX  ERROR ibv_create_cq(cqe=256) failed: Connection timed out
[1741042064.295637] [ohm:243536:0]        ib_iface.c:1059 UCX  ERROR ibv_create_cq(cqe=256) failed: Connection timed out
[1741042064.297478] [ohm:243548:0]        ib_iface.c:1059 UCX  ERROR ibv_create_cq(cqe=256) failed: Connection timed out
[1741042064.298848] [ohm:243525:0]        ib_iface.c:1059 UCX  ERROR ibv_create_cq(cqe=256) failed: Connection timed out
[1741042064.299229] [ohm:243534:0]        ib_iface.c:1059 UCX  ERROR ibv_create_cq(cqe=256) failed: Connection timed out
[1741042064.299278] [ohm:243566:0]        ib_iface.c:1059 UCX  ERROR ibv_create_cq(cqe=256) failed: Connection timed out
[1741042064.299354] [ohm:243545:0]        ib_iface.c:1059 UCX  ERROR ibv_create_cq(cqe=256) failed: Connection timed out
[1741042064.299344] [ohm:243531:0]        ib_iface.c:1059 UCX  ERROR ibv_create_cq(cqe=256) failed: Connection timed out
[1741042064.299797] [ohm:243533:0]        ib_iface.c:1059 UCX  ERROR ibv_create_cq(cqe=256) failed: Connection timed out
[1741042064.299841] [ohm:243541:0]        ib_iface.c:1059 UCX  ERROR ibv_create_cq(cqe=256) failed: Connection timed out
[1741042064.301534] [ohm:243528:0]        ib_iface.c:1059 UCX  ERROR ibv_create_cq(cqe=256) failed: Connection timed out


           ************************************************************
           *        Program running with 32 parallel MPI-processes    *
           *              working on a common directory               *
           ************************************************************

-------------------------------------------------------------------------------------------
                                      ORCA LEAN-SCF
                              memory conserving SCF solver
-------------------------------------------------------------------------------------------

----------------------------------------D-I-I-S--------------------------------------------
Iteration    Energy (Eh)           Delta-E    RMSDP     MaxDP     DIISErr   Damp  Time(sec)
-------------------------------------------------------------------------------------------
               ***  Starting incremental Fock matrix formation  ***
    1    -153.6987697781455608     0.00e+00  9.95e-04  2.76e-02  8.00e-02  0.700   0.3
    2    -153.7296949917188726    -3.09e-02  9.11e-04  2.54e-02  4.84e-02  0.700   0.3
                               ***Turning on AO-DIIS***
    3    -153.7463717203900728    -1.67e-02  7.00e-04  2.21e-02  2.54e-02  0.700   0.2
    4    -153.7565178991853259    -1.01e-02  1.67e-03  5.16e-02  1.80e-02  0.000   0.2
    5    -153.7794534484855262    -2.29e-02  1.29e-04  4.68e-03  4.52e-03  0.000   0.2
                              *** Initializing SOSCF ***
---------------------------------------S-O-S-C-F--------------------------------------
Iteration    Energy (Eh)           Delta-E    RMSDP     MaxDP     MaxGrad    Time(sec)
--------------------------------------------------------------------------------------
    6    -153.7798780256765667    -4.25e-04  8.47e-05  2.25e-03  3.22e-03     0.3
               *** Restarting incremental Fock matrix formation ***
    7    -153.7801170907433175    -2.39e-04  6.26e-05  1.55e-03  4.24e-03     0.3
    8    -153.7802218458634229    -1.05e-04  8.93e-05  1.99e-03  1.62e-03     0.3
    9    -153.7803034338991210    -8.16e-05  2.37e-05  9.11e-04  2.66e-04     0.2
   10    -153.7803054789661701    -2.05e-06  1.62e-05  6.93e-04  1.45e-04     0.2
   11    -153.7803060132226847    -5.34e-07  3.98e-06  1.82e-04  5.58e-05     0.2
   12    -153.7803060832724213    -7.00e-08  1.89e-06  1.41e-04  1.90e-05     0.2
   13    -153.7803060952134615    -1.19e-08  7.63e-07  4.31e-05  8.48e-06     0.2
   14    -153.7803060984423382    -3.23e-09  6.41e-07  5.22e-05  4.13e-06     0.2
                 **** Energy Check signals convergence ****

               *****************************************************
               *                     SUCCESS                       *
               *           SCF CONVERGED AFTER  14 CYCLES          *
               *****************************************************

Recomputing exchange energy using gridx3       ... done (    0.256 sec)
Old exchange energy                            :     -6.199251847 Eh
New exchange energy                            :     -6.199259416 Eh
Exchange energy change after final integration :     -0.000007569 Eh
Total energy after final integration           :   -153.780313667 Eh
             **** ENERGY FILE WAS UPDATED (orca.en.tmp) ****

----------------
TOTAL SCF ENERGY
----------------

Total Energy       :       -153.78031366700691 Eh           -4184.57507 eV

Components:
Nuclear Repulsion  :         68.89829767023481 Eh            1874.81799 eV
Electronic Energy  :       -222.67860376867714 Eh           -6059.39286 eV
One Electron Energy:       -344.13360433632579 Eh           -9364.35145 eV
Two Electron Energy:        121.45500056764865 Eh            3304.95859 eV

Virial components:
Potential Energy   :       -307.29134623293390 Eh           -8361.82264 eV
Kinetic Energy     :        153.51103256592700 Eh            4177.24756 eV
Virial Ratio       :          2.00175414819755

DFT components:
N(Alpha)           :       12.999999972098 electrons
N(Beta)            :       10.999999849940 electrons
N(Total)           :       23.999999822038 electrons
E(XC)              :      -14.741201046656 Eh       

---------------
SCF CONVERGENCE
---------------

  Last Energy change         ...    3.2289e-09  Tolerance :   1.0000e-08
  Last MAX-Density change    ...    5.2212e-05  Tolerance :   1.0000e-07
  Last RMS-Density change    ...    6.4122e-07  Tolerance :   5.0000e-09
  Last DIIS Error            ...    3.2168e-03  Tolerance :   5.0000e-07
  Last Orbital Gradient      ...    4.1327e-06  Tolerance :   1.0000e-05
  Last Orbital Rotation      ...    1.7262e-05  Tolerance :   1.0000e-05


----------------------
UHF SPIN CONTAMINATION
----------------------

Warning: in a DFT calculation there is little theoretical justification to 
         calculate <S**2> as in Hartree-Fock theory. We will do it anyways
         but you should keep in mind that the values have only limited relevance

Expectation value of <S**2>     :     2.006133
Ideal value S*(S+1) for S=1.0   :     2.000000
Deviation                       :     0.006133

----------------
ORBITAL ENERGIES
----------------
                 SPIN UP ORBITALS
  NO   OCC          E(Eh)            E(eV) 
   0   1.0000     -19.409692      -528.1646 
   1   1.0000     -10.382351      -282.5181 
   2   1.0000     -10.371367      -282.2192 
   3   1.0000      -1.233734       -33.5716 
   4   1.0000      -0.889161       -24.1953 
   5   1.0000      -0.717410       -19.5217 
   6   1.0000      -0.626233       -17.0407 
   7   1.0000      -0.588272       -16.0077 
   8   1.0000      -0.576089       -15.6762 
   9   1.0000      -0.515583       -14.0297 
  10   1.0000      -0.513764       -13.9802 
  11   1.0000      -0.428569       -11.6620 
  12   1.0000      -0.223428        -6.0798 
  13   0.0000       0.037299         1.0150 
  14   0.0000       0.059589         1.6215 
  15   0.0000       0.077863         2.1188 
  16   0.0000       0.087636         2.3847 
  17   0.0000       0.106022         2.8850 
  18   0.0000       0.127582         3.4717 
  19   0.0000       0.128114         3.4861 
  20   0.0000       0.133187         3.6242 
  21   0.0000       0.167397         4.5551 
  22   0.0000       0.182329         4.9614 
  23   0.0000       0.200758         5.4629 

                 SPIN DOWN ORBITALS
  NO   OCC          E(Eh)            E(eV) 
   0   1.0000     -19.382239      -527.4175 
   1   1.0000     -10.371731      -282.2291 
   2   1.0000     -10.369763      -282.1756 
   3   1.0000      -1.175673       -31.9917 
   4   1.0000      -0.870255       -23.6808 
   5   1.0000      -0.672503       -18.2997 
   6   1.0000      -0.583131       -15.8678 
   7   1.0000      -0.538382       -14.6501 
   8   1.0000      -0.534628       -14.5480 
   9   1.0000      -0.495368       -13.4797 
  10   1.0000      -0.467234       -12.7141 
  11   0.0000      -0.080388        -2.1875 
  12   0.0000       0.038541         1.0488 
  13   0.0000       0.059420         1.6169 
  14   0.0000       0.077493         2.1087 
  15   0.0000       0.084168         2.2903 
  16   0.0000       0.091362         2.4861 
  17   0.0000       0.106674         2.9027 
  18   0.0000       0.127720         3.4754 
  19   0.0000       0.127867         3.4794 
  20   0.0000       0.134103         3.6491 
  21   0.0000       0.167041         4.5454 
*Only the first 10 virtual orbitals were printed.

                    ********************************
                    * MULLIKEN POPULATION ANALYSIS *
                    ********************************

--------------------------------------------
MULLIKEN ATOMIC CHARGES AND SPIN POPULATIONS
--------------------------------------------
   0 O :   -0.331748    0.952393
   1 C :    0.028279    0.774140
   2 C :   -0.568960    0.093715
   3 H :    0.196138    0.105438
   4 H :    0.212596    0.032333
   5 H :    0.250337    0.009695
   6 H :    0.213359    0.032286
Sum of atomic charges         :   -0.0000000
Sum of atomic spin populations:    2.0000000

-----------------------------------------------------
MULLIKEN REDUCED ORBITAL CHARGES AND SPIN POPULATIONS
-----------------------------------------------------
CHARGE
  0 O s       :     4.021140  s :     4.021140
      pz      :     1.455201  p :     4.256388
      px      :     1.404350
      py      :     1.396837
      dz2     :     0.004269  d :     0.052386
      dxz     :     0.002595
      dyz     :     0.017750
      dx2y2   :     0.012635
      dxy     :     0.015137
      f0      :     0.000211  f :     0.001833
      f+1     :     0.000048
      f-1     :     0.000275
      f+2     :     0.000301
      f-2     :     0.000127
      f+3     :     0.000441
      f-3     :     0.000429

  1 C s       :     3.271091  s :     3.271091
      pz      :     1.011416  p :     2.602124
      px      :     0.942419
      py      :     0.648288
      dz2     :     0.006874  d :     0.082954
      dxz     :     0.000164
      dyz     :     0.041354
      dx2y2   :     0.000612
      dxy     :     0.033950
      f0      :     0.001736  f :     0.015553
      f+1     :     0.000740
      f-1     :     0.002169
      f+2     :     0.002051
      f-2     :     0.001642
      f+3     :     0.003773
      f-3     :     0.003443

  2 C s       :     3.339551  s :     3.339551
      pz      :     1.152852  p :     3.147787
      px      :     1.011030
      py      :     0.983905
      dz2     :    -0.004179  d :     0.079010
      dxz     :     0.022975
      dyz     :     0.030852
      dx2y2   :     0.008651
      dxy     :     0.020711
      f0      :     0.000135  f :     0.002613
      f+1     :     0.000449
      f-1     :     0.000227
      f+2     :     0.000139
      f-2     :     0.000743
      f+3     :     0.000434
      f-3     :     0.000486

  3 H s       :     0.749410  s :     0.749410
      pz      :     0.018746  p :     0.051315
      px      :     0.015913
      py      :     0.016657
      dz2     :     0.000855  d :     0.003138
      dxz     :     0.000499
      dyz     :     0.000684
      dx2y2   :     0.000640
      dxy     :     0.000459

  4 H s       :     0.735735  s :     0.735735
      pz      :     0.013723  p :     0.049486
      px      :     0.007470
      py      :     0.028294
      dz2     :     0.000269  d :     0.002182
      dxz     :     0.000316
      dyz     :     0.000426
      dx2y2   :     0.000620
      dxy     :     0.000552

  5 H s       :     0.709804  s :     0.709804
      pz      :     0.018837  p :     0.037711
      px      :     0.017509
      py      :     0.001366
      dz2     :     0.000550  d :     0.002147
      dxz     :     0.000463
      dyz     :     0.000403
      dx2y2   :     0.000327
      dxy     :     0.000405

  6 H s       :     0.735398  s :     0.735398
      pz      :     0.013991  p :     0.049064
      px      :     0.014948
      py      :     0.020126
      dz2     :     0.000671  d :     0.002179
      dxz     :     0.000508
      dyz     :     0.000499
      dx2y2   :     0.000202
      dxy     :     0.000299


SPIN
  0 O s       :    -0.002851  s :    -0.002851
      pz      :     0.442093  p :     0.946404
      px      :     0.467892
      py      :     0.036419
      dz2     :     0.000717  d :     0.009001
      dxz     :     0.001063
      dyz     :     0.003213
      dx2y2   :     0.003104
      dxy     :     0.000905
      f0      :     0.000015  f :    -0.000160
      f+1     :    -0.000004
      f-1     :    -0.000036
      f+2     :    -0.000019
      f-2     :     0.000003
      f+3     :    -0.000077
      f-3     :    -0.000042

  1 C s       :    -0.009954  s :    -0.009954
      pz      :     0.380603  p :     0.714423
      px      :     0.290516
      py      :     0.043304
      dz2     :     0.009463  d :     0.069196
      dxz     :     0.000474
      dyz     :     0.025120
      dx2y2   :     0.002191
      dxy     :     0.031948
      f0      :     0.000023  f :     0.000474
      f+1     :     0.000060
      f-1     :    -0.000106
      f+2     :     0.000368
      f-2     :    -0.000259
      f+3     :     0.000367
      f-3     :     0.000021

  2 C s       :     0.060824  s :     0.060824
      pz      :    -0.011482  p :     0.014053
      px      :     0.012168
      py      :     0.013366
      dz2     :    -0.013816  d :     0.017789
      dxz     :    -0.000091
      dyz     :     0.017892
      dx2y2   :     0.003598
      dxy     :     0.010206
      f0      :     0.000039  f :     0.001049
      f+1     :     0.000271
      f-1     :     0.000160
      f+2     :     0.000082
      f-2     :     0.000123
      f+3     :     0.000133
      f-3     :     0.000241

  3 H s       :     0.075994  s :     0.075994
      pz      :     0.014471  p :     0.028478
      px      :     0.011134
      py      :     0.002873
      dz2     :     0.000629  d :     0.000966
      dxz     :    -0.000000
      dyz     :     0.000024
      dx2y2   :     0.000136
      dxy     :     0.000176

  4 H s       :     0.024379  s :     0.024379
      pz      :     0.001432  p :     0.007799
      px      :     0.001820
      py      :     0.004546
      dz2     :     0.000002  d :     0.000155
      dxz     :     0.000004
      dyz     :     0.000026
      dx2y2   :     0.000072
      dxy     :     0.000051

  5 H s       :     0.009801  s :     0.009801
      pz      :    -0.000687  p :    -0.000201
      px      :    -0.000419
      py      :     0.000905
      dz2     :     0.000014  d :     0.000095
      dxz     :     0.000016
      dyz     :     0.000024
      dx2y2   :     0.000023
      dxy     :     0.000019

  6 H s       :     0.024549  s :     0.024549
      pz      :    -0.000382  p :     0.007583
      px      :     0.005650
      py      :     0.002315
      dz2     :     0.000070  d :     0.000154
      dxz     :     0.000021
      dyz     :     0.000024
      dx2y2   :     0.000011
      dxy     :     0.000029



                     *******************************
                     * LOEWDIN POPULATION ANALYSIS *
                     *******************************

-------------------------------------------
LOEWDIN ATOMIC CHARGES AND SPIN POPULATIONS
-------------------------------------------
   0 O :    0.150457    0.962531
   1 C :   -0.267958    0.653839
   2 C :    0.132101    0.169466
   3 H :    0.025140    0.148392
   4 H :   -0.017430    0.030353
   5 H :   -0.007963    0.005048
   6 H :   -0.014346    0.030370

----------------------------------------------------
LOEWDIN REDUCED ORBITAL CHARGES AND SPIN POPULATIONS
----------------------------------------------------
CHARGE
  0 O s       :     3.394504  s :     3.394504
      pz      :     1.334906  p :     4.162714
      px      :     1.296201
      py      :     1.531607
      dz2     :     0.026916  d :     0.284799
      dxz     :     0.009769
      dyz     :     0.091638
      dx2y2   :     0.072211
      dxy     :     0.084265
      f0      :     0.000826  f :     0.007527
      f+1     :     0.000163
      f-1     :     0.001140
      f+2     :     0.001220
      f-2     :     0.000594
      f+3     :     0.001796
      f-3     :     0.001788

  1 C s       :     2.674975  s :     2.674975
      pz      :     0.870534  p :     2.640392
      px      :     0.884241
      py      :     0.885616
      dz2     :     0.095772  d :     0.851430
      dxz     :     0.091157
      dyz     :     0.199173
      dx2y2   :     0.238538
      dxy     :     0.226789
      f0      :     0.010251  f :     0.101162
      f+1     :     0.004471
      f-1     :     0.014740
      f+2     :     0.014492
      f-2     :     0.010621
      f+3     :     0.024036
      f-3     :     0.022551

  2 C s       :     2.644998  s :     2.644998
      pz      :     0.923134  p :     2.697013
      px      :     0.895099
      py      :     0.878780
      dz2     :     0.049677  d :     0.492488
      dxz     :     0.130742
      dyz     :     0.099042
      dx2y2   :     0.097504
      dxy     :     0.115523
      f0      :     0.003468  f :     0.033399
      f+1     :     0.005346
      f-1     :     0.004702
      f+2     :     0.003255
      f-2     :     0.005198
      f+3     :     0.006186
      f-3     :     0.005244

  3 H s       :     0.654970  s :     0.654970
      pz      :     0.111203  p :     0.288373
      px      :     0.101872
      py      :     0.075298
      dz2     :     0.008808  d :     0.031517
      dxz     :     0.006649
      dyz     :     0.005845
      dx2y2   :     0.005022
      dxy     :     0.005195

  4 H s       :     0.700112  s :     0.700112
      pz      :     0.085441  p :     0.287485
      px      :     0.089224
      py      :     0.112820
      dz2     :     0.004081  d :     0.029834
      dxz     :     0.003993
      dyz     :     0.006458
      dx2y2   :     0.007679
      dxy     :     0.007622

  5 H s       :     0.703832  s :     0.703832
      pz      :     0.102838  p :     0.274558
      px      :     0.095807
      py      :     0.075913
      dz2     :     0.007857  d :     0.029574
      dxz     :     0.007741
      dyz     :     0.004697
      dx2y2   :     0.004326
      dxy     :     0.004953

  6 H s       :     0.699203  s :     0.699203
      pz      :     0.112035  p :     0.285672
      px      :     0.091327
      py      :     0.082310
      dz2     :     0.008298  d :     0.029471
      dxz     :     0.007948
      dyz     :     0.006956
      dx2y2   :     0.002880
      dxy     :     0.003389


SPIN
  0 O s       :     0.010098  s :     0.010098
      pz      :     0.396679  p :     0.838601
      px      :     0.412688
      py      :     0.029234
      dz2     :     0.006178  d :     0.110912
      dxz     :     0.007430
      dyz     :     0.045309
      dx2y2   :     0.017609
      dxy     :     0.034386
      f0      :     0.000413  f :     0.002920
      f+1     :     0.000036
      f-1     :     0.000361
      f+2     :     0.000474
      f-2     :     0.000440
      f+3     :     0.000497
      f-3     :     0.000699

  1 C s       :     0.007328  s :     0.007328
      pz      :     0.235586  p :     0.446017
      px      :     0.179873
      py      :     0.030559
      dz2     :     0.018612  d :     0.173468
      dxz     :     0.002866
      dyz     :     0.064141
      dx2y2   :     0.002678
      dxy     :     0.085170
      f0      :     0.002241  f :     0.027026
      f+1     :     0.001768
      f-1     :     0.002022
      f+2     :     0.006962
      f-2     :     0.002496
      f+3     :     0.005906
      f-3     :     0.005632

  2 C s       :     0.007632  s :     0.007632
      pz      :     0.004265  p :     0.046064
      px      :     0.019844
      py      :     0.021955
      dz2     :     0.005352  d :     0.108017
      dxz     :     0.011873
      dyz     :     0.042367
      dx2y2   :     0.034283
      dxy     :     0.014142
      f0      :     0.000185  f :     0.007754
      f+1     :     0.002011
      f-1     :     0.001400
      f+2     :     0.000577
      f-2     :     0.000964
      f+3     :     0.001050
      f-3     :     0.001567

  3 H s       :     0.078583  s :     0.078583
      pz      :     0.032763  p :     0.061962
      px      :     0.024028
      py      :     0.005172
      dz2     :     0.005660  d :     0.007847
      dxz     :     0.000074
      dyz     :    -0.000031
      dx2y2   :     0.000708
      dxy     :     0.001437

  4 H s       :     0.019976  s :     0.019976
      pz      :     0.001381  p :     0.009606
      px      :     0.001227
      py      :     0.006998
      dz2     :    -0.000013  d :     0.000771
      dxz     :     0.000001
      dyz     :     0.000120
      dx2y2   :     0.000514
      dxy     :     0.000150

  5 H s       :     0.002904  s :     0.002904
      pz      :     0.000088  p :     0.001394
      px      :     0.000734
      py      :     0.000572
      dz2     :     0.000050  d :     0.000749
      dxz     :     0.000094
      dyz     :     0.000246
      dx2y2   :     0.000175
      dxy     :     0.000184

  6 H s       :     0.020008  s :     0.020008
      pz      :    -0.000022  p :     0.009606
      px      :     0.005235
      py      :     0.004393
      dz2     :     0.000350  d :     0.000756
      dxz     :     0.000058
      dyz     :     0.000151
      dx2y2   :     0.000001
      dxy     :     0.000197



                      *****************************
                      * MAYER POPULATION ANALYSIS *
                      *****************************

  NA   - Mulliken gross atomic population
  ZA   - Total nuclear charge
  QA   - Mulliken gross atomic charge
  VA   - Mayer's total valence
  BVA  - Mayer's bonded valence
  FA   - Mayer's free valence

  ATOM       NA         ZA         QA         VA         BVA        FA
  0 O      8.3317     8.0000    -0.3317     2.0222     1.4040     0.6182
  1 C      5.9717     6.0000     0.0283     3.3199     2.7673     0.5527
  2 C      6.5690     6.0000    -0.5690     3.6100     3.5987     0.0113
  3 H      0.8039     1.0000     0.1961     0.9727     0.9638     0.0090
  4 H      0.7874     1.0000     0.2126     1.0255     1.0245     0.0010
  5 H      0.7497     1.0000     0.2503     0.9954     0.9952     0.0002
  6 H      0.7866     1.0000     0.2134     1.0236     1.0226     0.0010

  Mayer bond orders larger than 0.100000
B(  0-O ,  1-C ) :   1.2601 B(  1-C ,  2-C ) :   0.6343 B(  1-C ,  3-H ) :   0.9414 
B(  2-C ,  4-H ) :   1.0138 B(  2-C ,  5-H ) :   0.9292 B(  2-C ,  6-H ) :   1.0136 


-------
TIMINGS
-------

Total SCF time: 0 days 0 hours 0 min 4 sec 

Total time                  ....       4.451 sec
Sum of individual times     ....       4.443 sec  ( 99.8%)

SCF preparation             ....       0.646 sec  ( 14.5%)
Fock matrix formation       ....       3.172 sec  ( 71.3%)
  Startup                   ....       0.035 sec  (  1.1% of F)
  Split-RI-J                ....       0.180 sec  (  5.7% of F)
  Chain of spheres X        ....       2.038 sec  ( 64.3% of F)
  XC integration            ....       0.802 sec  ( 25.3% of F)
    XC Preparation          ....       0.000 sec  (  0.0% of XC)
    Basis function eval.    ....       0.051 sec  (  6.3% of XC)
    Density eval.           ....       0.206 sec  ( 25.7% of XC)
    XC-Functional eval.     ....       0.019 sec  (  2.3% of XC)
    XC-Potential eval.      ....       0.339 sec  ( 42.2% of XC)
Diagonalization             ....       0.000 sec  (  0.0%)
Density matrix formation    ....       0.075 sec  (  1.7%)
Total Energy calculation    ....       0.055 sec  (  1.2%)
Population analysis         ....       0.026 sec  (  0.6%)
Orbital Transformation      ....       0.052 sec  (  1.2%)
Orbital Orthonormalization  ....       0.000 sec  (  0.0%)
DIIS solution               ....       0.258 sec  (  5.8%)
SOSCF solution              ....       0.156 sec  (  3.5%)
Finished LeanSCF after   4.5 sec

Maximum memory used throughout the entire LEANSCF-calculation: 14.6 MB
[1741042069.005761] [ohm:243737:0]        ib_iface.c:1059 UCX  ERROR ibv_create_cq(cqe=256) failed: Connection timed out
[1741042069.006351] [ohm:243736:0]        ib_iface.c:1059 UCX  ERROR ibv_create_cq(cqe=256) failed: Connection timed out
[1741042069.008017] [ohm:243731:0]        ib_iface.c:1059 UCX  ERROR ibv_create_cq(cqe=256) failed: Connection timed out
[1741042069.012234] [ohm:243730:0]        ib_iface.c:1059 UCX  ERROR ibv_create_cq(cqe=256) failed: Connection timed out
[1741042069.030596] [ohm:243740:0]        ib_iface.c:1059 UCX  ERROR ibv_create_cq(cqe=256) failed: Connection timed out
[1741042069.030801] [ohm:243741:0]        ib_iface.c:1059 UCX  ERROR ibv_create_cq(cqe=256) failed: Connection timed out
[1741042069.076899] [ohm:243744:0]        ib_iface.c:1059 UCX  ERROR ibv_create_cq(cqe=256) failed: Connection timed out
[1741042069.076924] [ohm:243745:0]        ib_iface.c:1059 UCX  ERROR ibv_create_cq(cqe=256) failed: Connection timed out
[1741042069.078064] [ohm:243751:0]        ib_iface.c:1059 UCX  ERROR ibv_create_cq(cqe=256) failed: Connection timed out
[1741042069.078793] [ohm:243760:0]        ib_iface.c:1059 UCX  ERROR ibv_create_cq(cqe=256) failed: Connection timed out
[1741042069.085895] [ohm:243735:0]        ib_iface.c:1059 UCX  ERROR ibv_create_cq(cqe=256) failed: Connection timed out
[1741042069.085895] [ohm:243739:0]        ib_iface.c:1059 UCX  ERROR ibv_create_cq(cqe=256) failed: Connection timed out
[1741042069.086255] [ohm:243733:0]        ib_iface.c:1059 UCX  ERROR ibv_create_cq(cqe=256) failed: Connection timed out
[1741042069.087500] [ohm:243743:0]        ib_iface.c:1059 UCX  ERROR ibv_create_cq(cqe=256) failed: Connection timed out
[1741042069.089194] [ohm:243734:0]        ib_iface.c:1059 UCX  ERROR ibv_create_cq(cqe=256) failed: Connection timed out
[1741042069.090030] [ohm:243742:0]        ib_iface.c:1059 UCX  ERROR ibv_create_cq(cqe=256) failed: Connection timed out
[1741042069.093238] [ohm:243748:0]        ib_iface.c:1059 UCX  ERROR ibv_create_cq(cqe=256) failed: Connection timed out
[1741042069.095423] [ohm:243764:0]        ib_iface.c:1059 UCX  ERROR ibv_create_cq(cqe=256) failed: Connection timed out
[1741042069.095463] [ohm:243779:0]        ib_iface.c:1059 UCX  ERROR ibv_create_cq(cqe=256) failed: Connection timed out
[1741042069.098223] [ohm:243768:0]        ib_iface.c:1059 UCX  ERROR ibv_create_cq(cqe=256) failed: Connection timed out
[1741042069.098481] [ohm:243761:0]        ib_iface.c:1059 UCX  ERROR ibv_create_cq(cqe=256) failed: Connection timed out
[1741042069.100421] [ohm:243738:0]        ib_iface.c:1059 UCX  ERROR ibv_create_cq(cqe=256) failed: Connection timed out
[1741042069.100555] [ohm:243747:0]        ib_iface.c:1059 UCX  ERROR ibv_create_cq(cqe=256) failed: Connection timed out
[1741042069.101761] [ohm:243746:0]        ib_iface.c:1059 UCX  ERROR ibv_create_cq(cqe=256) failed: Connection timed out
[1741042069.102070] [ohm:243732:0]        ib_iface.c:1059 UCX  ERROR ibv_create_cq(cqe=256) failed: Connection timed out
[1741042069.102212] [ohm:243762:0]        ib_iface.c:1059 UCX  ERROR ibv_create_cq(cqe=256) failed: Connection timed out
[1741042069.102601] [ohm:243771:0]        ib_iface.c:1059 UCX  ERROR ibv_create_cq(cqe=256) failed: Connection timed out
[1741042069.103071] [ohm:243754:0]        ib_iface.c:1059 UCX  ERROR ibv_create_cq(cqe=256) failed: Connection timed out
[1741042069.103268] [ohm:243766:0]        ib_iface.c:1059 UCX  ERROR ibv_create_cq(cqe=256) failed: Connection timed out
[1741042069.103292] [ohm:243774:0]        ib_iface.c:1059 UCX  ERROR ibv_create_cq(cqe=256) failed: Connection timed out
[1741042069.103815] [ohm:243763:0]        ib_iface.c:1059 UCX  ERROR ibv_create_cq(cqe=256) failed: Connection timed out
[1741042069.104050] [ohm:243756:0]        ib_iface.c:1059 UCX  ERROR ibv_create_cq(cqe=256) failed: Connection timed out


           ************************************************************
           *        Program running with 32 parallel MPI-processes    *
           *              working on a common directory               *
           ************************************************************

------------------------------------------------------------------------------
                         ORCA PROPERTY INTEGRAL CALCULATIONS
------------------------------------------------------------------------------

GBWName                                   ... orca.gbw
Number of atoms                           ...      7
Number of basis functions                 ...    182
Max core memory                           ...   1024 MB

Dipole integrals                          ... YES
Quadrupole integrals                      ...  NO
Linear momentum integrals                 ... YES
Angular momentum integrals                ... YES
Higher moments length integrals           ...  NO
Higher moments velocity integrals         ...  NO
Kinetic energy integrals                  ...  NO
GIAO right hand sides                     ...  NO
GIAO dipole derivative integrals          ...  NO
SOC integrals                             ...  NO
EPR diamagnetic integrals (GIAO)          ...  NO
EPR gauge integrals                       ...  NO
Field gradient integrals                  ...  NO (   0 nuclei)
Spin-dipole/Fermi contact integrals       ...  NO (   0 nuclei)
Contact density integrals                 ...  NO (   0 nuclei)
Nucleus-orbit integrals                   ...  NO (   0 nuclei)
Geometric perturbations                   ...  NO (   7 nuclei)

Choice of electric origin   ... Center of mass
Position of electric origin ... (  0.5521,  0.5016, -0.0124) 
Choice of magnetic origin   ... GIAO
Position of magnetic origin ... (  0.0000,  0.0000,  0.0000) 

Calculating integrals                     ... Electric Dipole (Length)     done (  0.0 sec)
Calculating integrals                     ... Linear Momentum              done (  0.0 sec)
Calculating integrals                     ... Angular Momentum  (ElOri)    done (  0.0 sec)

Property integrals calculated in   0.0 sec

Maximum memory used throughout the entire PROPINT-calculation: 10.2 MB
[1741042069.951312] [ohm:243931:0]        ib_iface.c:1059 UCX  ERROR ibv_create_cq(cqe=256) failed: Connection timed out
[1741042069.951507] [ohm:243940:0]        ib_iface.c:1059 UCX  ERROR ibv_create_cq(cqe=256) failed: Connection timed out
[1741042069.958023] [ohm:243917:0]        ib_iface.c:1059 UCX  ERROR ibv_create_cq(cqe=256) failed: Connection timed out
[1741042069.960935] [ohm:243908:0]        ib_iface.c:1059 UCX  ERROR ibv_create_cq(cqe=256) failed: Connection timed out
[1741042069.961847] [ohm:243905:0]        ib_iface.c:1059 UCX  ERROR ibv_create_cq(cqe=256) failed: Connection timed out
[1741042069.986240] [ohm:243914:0]        ib_iface.c:1059 UCX  ERROR ibv_create_cq(cqe=256) failed: Connection timed out
[1741042069.986244] [ohm:243953:0]        ib_iface.c:1059 UCX  ERROR ibv_create_cq(cqe=256) failed: Connection timed out
[1741042069.996843] [ohm:243920:0]        ib_iface.c:1059 UCX  ERROR ibv_create_cq(cqe=256) failed: Connection timed out
[1741042070.001907] [ohm:243923:0]        ib_iface.c:1059 UCX  ERROR ibv_create_cq(cqe=256) failed: Connection timed out
[1741042070.002505] [ohm:243948:0]        ib_iface.c:1059 UCX  ERROR ibv_create_cq(cqe=256) failed: Connection timed out
[1741042070.004209] [ohm:243921:0]        ib_iface.c:1059 UCX  ERROR ibv_create_cq(cqe=256) failed: Connection timed out
[1741042070.004907] [ohm:243959:0]        ib_iface.c:1059 UCX  ERROR ibv_create_cq(cqe=256) failed: Connection timed out
[1741042070.008044] [ohm:243906:0]        ib_iface.c:1059 UCX  ERROR ibv_create_cq(cqe=256) failed: Connection timed out
[1741042070.009771] [ohm:243911:0]        ib_iface.c:1059 UCX  ERROR ibv_create_cq(cqe=256) failed: Connection timed out
[1741042070.010246] [ohm:243902:0]        ib_iface.c:1059 UCX  ERROR ibv_create_cq(cqe=256) failed: Connection timed out
[1741042070.011486] [ohm:243919:0]        ib_iface.c:1059 UCX  ERROR ibv_create_cq(cqe=256) failed: Connection timed out
[1741042070.011732] [ohm:243915:0]        ib_iface.c:1059 UCX  ERROR ibv_create_cq(cqe=256) failed: Connection timed out
[1741042070.014100] [ohm:243899:0]        ib_iface.c:1059 UCX  ERROR ibv_create_cq(cqe=256) failed: Connection timed out
[1741042070.016686] [ohm:243909:0]        ib_iface.c:1059 UCX  ERROR ibv_create_cq(cqe=256) failed: Connection timed out
[1741042070.018912] [ohm:243900:0]        ib_iface.c:1059 UCX  ERROR ibv_create_cq(cqe=256) failed: Connection timed out
[1741042070.019745] [ohm:243922:0]        ib_iface.c:1059 UCX  ERROR ibv_create_cq(cqe=256) failed: Connection timed out
[1741042070.020095] [ohm:243912:0]        ib_iface.c:1059 UCX  ERROR ibv_create_cq(cqe=256) failed: Connection timed out
[1741042070.021537] [ohm:243918:0]        ib_iface.c:1059 UCX  ERROR ibv_create_cq(cqe=256) failed: Connection timed out
[1741042070.021721] [ohm:243910:0]        ib_iface.c:1059 UCX  ERROR ibv_create_cq(cqe=256) failed: Connection timed out
[1741042070.022210] [ohm:243916:0]        ib_iface.c:1059 UCX  ERROR ibv_create_cq(cqe=256) failed: Connection timed out
[1741042070.023275] [ohm:243901:0]        ib_iface.c:1059 UCX  ERROR ibv_create_cq(cqe=256) failed: Connection timed out
[1741042070.023278] [ohm:243907:0]        ib_iface.c:1059 UCX  ERROR ibv_create_cq(cqe=256) failed: Connection timed out
[1741042070.023273] [ohm:243913:0]        ib_iface.c:1059 UCX  ERROR ibv_create_cq(cqe=256) failed: Connection timed out
[1741042070.023409] [ohm:243904:0]        ib_iface.c:1059 UCX  ERROR ibv_create_cq(cqe=256) failed: Connection timed out
[1741042070.023381] [ohm:243928:0]        ib_iface.c:1059 UCX  ERROR ibv_create_cq(cqe=256) failed: Connection timed out
[1741042070.023515] [ohm:243938:0]        ib_iface.c:1059 UCX  ERROR ibv_create_cq(cqe=256) failed: Connection timed out
[1741042070.023757] [ohm:243903:0]        ib_iface.c:1059 UCX  ERROR ibv_create_cq(cqe=256) failed: Connection timed out


           ************************************************************
           *        Program running with 32 parallel MPI-processes    *
           *              working on a common directory               *
           ************************************************************
------------------------------------------------------------------------------
                        ORCA TD-DFT/TDA CALCULATION
------------------------------------------------------------------------------

Input orbitals are from        ... orca.gbw
CI-vector output               ... orca.cis
Solver                         ... FN-2001
Tamm-Dancoff approximation     ... operative
CIS-Integral strategy          ... AO-integrals
Integral handling              ... AO integral Direct
Max. core memory used          ... 512 MB
Reference state                ... UHF
Follow IRoot                   ... off
Number of operators            ... 2
Orbital ranges used for CIS calculation:
 Operator 0:  Orbitals   3... 12  to  11...181

-------------------
XC-INTEGRATION GRID
-------------------

General Integration Accuracy     IntAcc      ... 3.467
Radial Grid Type                 RadialGrid  ... OptM3 with GC (2021)
Angular Grid (max. ang.)         AngularGrid ... 1 (Lebedev-50)
Angular grid pruning method      GridPruning ... 4 (adaptive)
Weight generation scheme         WeightScheme... mBecke (2022)
Basis function cutoff            BFCut       ... 1.0000e-11
Integration weight cutoff        WCut        ... 1.0000e-14
Partially contracted basis set               ... off
Rotationally invariant grid construction     ... off
Angular grids for H and He will be reduced by one unit
Diffuse basis detected: some atoms will have their outermost
                        angular grid increased by 1.

Total number of grid points                  ...     4749
Total number of batches                      ...       77
Average number of points per batch           ...       61
Average number of grid points per atom       ...      678

---------------------
[...]
=> NOW LEAVING ORCA_CIS


-------------------------------------------------------------------------------
                          DFT DISPERSION CORRECTION                            
                                                                               
                              DFTD3 V3.1  Rev 1                                
                          USING Becke-Johnson damping                          
-------------------------------------------------------------------------------
The WB97M functional is recognized
Active option DFTDOPT                   ...         4   

molecular C6(AA) [au] = 395.101579 


            DFT-D V3
 parameters
 s6 scaling factor         :     1.0000 
 a1 scaling factor         :     0.5660 
 s8 scaling factor         :     0.3908 
 a2 scaling factor         :     3.1280 
 ad hoc parameters k1-k3   :    16.0000     1.3333    -4.0000 

 Edisp/kcal,au: -3.440850232417  -0.005483343292 
 E6   /kcal   :  -2.776211117 
 E8   /kcal   :  -0.664639115 
 % E8         :  19.316130331 

-------------------------   ----------------
Dispersion correction           -0.005483343
-------------------------   ----------------


-------------------------   --------------------
FINAL SINGLE POINT ENERGY      -153.914663079378
-------------------------   --------------------

[1741042076.266219] [ohm:244094:0]        ib_iface.c:1059 UCX  ERROR ibv_create_cq(cqe=256) failed: Connection timed out
[1741042076.266154] [ohm:244096:0]        ib_iface.c:1059 UCX  ERROR ibv_create_cq(cqe=256) failed: Connection timed out
[1741042076.266161] [ohm:244100:0]        ib_iface.c:1059 UCX  ERROR ibv_create_cq(cqe=256) failed: Connection timed out
[1741042076.267438] [ohm:244093:0]        ib_iface.c:1059 UCX  ERROR ibv_create_cq(cqe=256) failed: Connection timed out
[1741042076.321413] [ohm:244110:0]        ib_iface.c:1059 UCX  ERROR ibv_create_cq(cqe=256) failed: Connection timed out
[1741042076.321773] [ohm:244108:0]        ib_iface.c:1059 UCX  ERROR ibv_create_cq(cqe=256) failed: Connection timed out
[1741042076.321810] [ohm:244109:0]        ib_iface.c:1059 UCX  ERROR ibv_create_cq(cqe=256) failed: Connection timed out
[1741042076.321874] [ohm:244097:0]        ib_iface.c:1059 UCX  ERROR ibv_create_cq(cqe=256) failed: Connection timed out
[1741042076.329757] [ohm:244113:0]        ib_iface.c:1059 UCX  ERROR ibv_create_cq(cqe=256) failed: Connection timed out
[1741042076.341443] [ohm:244101:0]        ib_iface.c:1059 UCX  ERROR ibv_create_cq(cqe=256) failed: Connection timed out
[1741042076.342675] [ohm:244105:0]        ib_iface.c:1059 UCX  ERROR ibv_create_cq(cqe=256) failed: Connection timed out
[1741042076.346026] [ohm:244117:0]        ib_iface.c:1059 UCX  ERROR ibv_create_cq(cqe=256) failed: Connection timed out
[1741042076.348287] [ohm:244104:0]        ib_iface.c:1059 UCX  ERROR ibv_create_cq(cqe=256) failed: Connection timed out
[1741042076.348456] [ohm:244114:0]        ib_iface.c:1059 UCX  ERROR ibv_create_cq(cqe=256) failed: Connection timed out
[1741042076.381216] [ohm:244131:0]        ib_iface.c:1059 UCX  ERROR ibv_create_cq(cqe=256) failed: Connection timed out
[1741042076.383628] [ohm:244118:0]        ib_iface.c:1059 UCX  ERROR ibv_create_cq(cqe=256) failed: Connection timed out
[1741042076.385764] [ohm:244103:0]        ib_iface.c:1059 UCX  ERROR ibv_create_cq(cqe=256) failed: Connection timed out
[1741042076.385764] [ohm:244111:0]        ib_iface.c:1059 UCX  ERROR ibv_create_cq(cqe=256) failed: Connection timed out
[1741042076.385764] [ohm:244119:0]        ib_iface.c:1059 UCX  ERROR ibv_create_cq(cqe=256) failed: Connection timed out
[1741042076.385924] [ohm:244115:0]        ib_iface.c:1059 UCX  ERROR ibv_create_cq(cqe=256) failed: Connection timed out
[1741042076.385924] [ohm:244092:0]        ib_iface.c:1059 UCX  ERROR ibv_create_cq(cqe=256) failed: Connection timed out
[1741042076.385955] [ohm:244106:0]        ib_iface.c:1059 UCX  ERROR ibv_create_cq(cqe=256) failed: Connection timed out
[1741042076.385973] [ohm:244102:0]        ib_iface.c:1059 UCX  ERROR ibv_create_cq(cqe=256) failed: Connection timed out
[1741042076.386215] [ohm:244112:0]        ib_iface.c:1059 UCX  ERROR ibv_create_cq(cqe=256) failed: Connection timed out
[1741042076.386061] [ohm:244095:0]        ib_iface.c:1059 UCX  ERROR ibv_create_cq(cqe=256) failed: Connection timed out
[1741042076.386116] [ohm:244099:0]        ib_iface.c:1059 UCX  ERROR ibv_create_cq(cqe=256) failed: Connection timed out
[1741042076.386254] [ohm:244133:0]        ib_iface.c:1059 UCX  ERROR ibv_create_cq(cqe=256) failed: Connection timed out
[1741042076.386455] [ohm:244124:0]        ib_iface.c:1059 UCX  ERROR ibv_create_cq(cqe=256) failed: Connection timed out
[1741042076.386522] [ohm:244098:0]        ib_iface.c:1059 UCX  ERROR ibv_create_cq(cqe=256) failed: Connection timed out
[1741042076.386781] [ohm:244143:0]        ib_iface.c:1059 UCX  ERROR ibv_create_cq(cqe=256) failed: Connection timed out
[1741042076.386960] [ohm:244116:0]        ib_iface.c:1059 UCX  ERROR ibv_create_cq(cqe=256) failed: Connection timed out
[1741042076.387016] [ohm:244107:0]        ib_iface.c:1059 UCX  ERROR ibv_create_cq(cqe=256) failed: Connection timed out


           ************************************************************
           *        Program running with 32 parallel MPI-processes    *
           *              working on a common directory               *
           ************************************************************

------------------------------------------------------------------------------
                              ORCA PROPERTY CALCULATIONS
------------------------------------------------------------------------------

GBWName                                 ... orca.gbw
Number of atoms                         ...      7
Number of basis functions               ...    182
Max core memory                         ...   1024 MB

Electric properties:
Dipole moment                           ... YES
Quadrupole moment                       ...  NO
Static polarizability (Dipole/Dipole)   ...  NO
Static polarizability (Dipole/Quad.)    ...  NO
Static polarizability (Quad./Quad.)     ...  NO
Static polarizability (Velocity)        ...  NO

Atomic electric properties:
Dipole moment                           ...  NO
Quadrupole moment                       ...  NO
Static polarizability                   ...  NO

Choice of electric origin               ... Center of mass
Position of electric origin             ...     0.552061     0.501606    -0.012428

General magnetic properties:
Magnetizability                         ...  NO

EPR properties:
g-Tensor (aka g-matrix)                 ...  NO
Zero-Field splitting spin-orbit         ...  NO
Zero-field splitting spin-spin          ...  NO
Hyperfine couplings                     ...  NO (   0 nuclei)
Quadrupole couplings                    ...  NO (   0 nuclei)
Contact density                         ...  NO (   0 nuclei)

NMR properties:
Chemical shifts                         ...  NO (   0 nuclei)
Spin-rotation constants                 ...  NO (   0 nuclei)
Spin-spin couplings                     ...  NO (   0 nuclei,    0 pairs)

Choice of magnetic origin               ... GIAO
Position of magnetic origin             ...     0.000000     0.000000     0.000000

Properties with geometric perturbations:
SCF Hessian                             ...  NO
IR spectrum                             ...  NO
VCD spectrum                            ...  NO
X-ray spectroscopy properties:
SCF XES/XAS/RIXS spectra                ...  NO


-------------
DIPOLE MOMENT
-------------

Method             : SCF
Type of density    : Electron Density
Multiplicity       :   3
Irrep              :   0
Energy             :  -153.7803136670069080 Eh
Relativity type    : 
Basis              : AO
                                X                 Y                 Z
Electronic contribution:      1.685497459       3.627821497       0.030019961
Nuclear contribution   :     -1.913387254      -4.306913839       0.029704595
                        -----------------------------------------
Total Dipole Moment    :     -0.227889796      -0.679092342       0.059724556
                        -----------------------------------------
Magnitude (a.u.)       :      0.718795653
Magnitude (Debye)      :      1.827033353



--------------------
Rotational spectrum 
--------------------
 
Rotational constants in cm-1:             2.372794             0.304203             0.283785 
Rotational constants in MHz :         71134.578259          9119.770723          8507.658681 

Dipole components along the rotational axes: 
x,y,z [a.u.] :     0.690200    -0.200534     0.008764 
x,y,z [Debye]:     1.754350    -0.509717     0.022277 

 

-------------
DIPOLE MOMENT
-------------

Method             : TDA/CIS
Type of density    : Electron Density
Level              : Relaxed density
State              :   1
Multiplicity       :   3
Irrep              :   0
Energy             :     0.0000000000000000 Eh
Relativity type    : 
Basis              : AO
                                X                 Y                 Z
Electronic contribution:      1.450110279       3.000591831       0.086238816
Nuclear contribution   :     -1.913387254      -4.306913839       0.029704595
                        -----------------------------------------
Total Dipole Moment    :     -0.463276975      -1.306322008       0.115943411
                        -----------------------------------------
Magnitude (a.u.)       :      1.390879441
Magnitude (Debye)      :      3.535334581



--------------------
Rotational spectrum 
--------------------
 
Rotational constants in cm-1:             2.372794             0.304203             0.283785 
Rotational constants in MHz :         71134.578259          9119.770723          8507.658681 

Dipole components along the rotational axes: 
x,y,z [a.u.] :     1.340240    -0.371891     0.000381 
x,y,z [Debye]:     3.406619    -0.945272     0.000967 

 

Dipole moment calculation done in   0.0 sec 

Maximum memory used throughout the entire PROP-calculation: 7.4 MB
[1741042077.215135] [ohm:244276:0]        ib_iface.c:1059 UCX  ERROR ibv_create_cq(cqe=256) failed: Connection timed out
[1741042077.215365] [ohm:244274:0]        ib_iface.c:1059 UCX  ERROR ibv_create_cq(cqe=256) failed: Connection timed out
[1741042077.215304] [ohm:244278:0]        ib_iface.c:1059 UCX  ERROR ibv_create_cq(cqe=256) failed: Connection timed out
[1741042077.215535] [ohm:244261:0]        ib_iface.c:1059 UCX  ERROR ibv_create_cq(cqe=256) failed: Connection timed out
[1741042077.215646] [ohm:244281:0]        ib_iface.c:1059 UCX  ERROR ibv_create_cq(cqe=256) failed: Connection timed out
[1741042077.250445] [ohm:244279:0]        ib_iface.c:1059 UCX  ERROR ibv_create_cq(cqe=256) failed: Connection timed out
[1741042077.251437] [ohm:244271:0]        ib_iface.c:1059 UCX  ERROR ibv_create_cq(cqe=256) failed: Connection timed out
[1741042077.252184] [ohm:244272:0]        ib_iface.c:1059 UCX  ERROR ibv_create_cq(cqe=256) failed: Connection timed out
[1741042077.253561] [ohm:244266:0]        ib_iface.c:1059 UCX  ERROR ibv_create_cq(cqe=256) failed: Connection timed out
[1741042077.255812] [ohm:244268:0]        ib_iface.c:1059 UCX  ERROR ibv_create_cq(cqe=256) failed: Connection timed out
[1741042077.258424] [ohm:244277:0]        ib_iface.c:1059 UCX  ERROR ibv_create_cq(cqe=256) failed: Connection timed out
[1741042077.259107] [ohm:244275:0]        ib_iface.c:1059 UCX  ERROR ibv_create_cq(cqe=256) failed: Connection timed out
[1741042077.259431] [ohm:244262:0]        ib_iface.c:1059 UCX  ERROR ibv_create_cq(cqe=256) failed: Connection timed out
[1741042077.260322] [ohm:244263:0]        ib_iface.c:1059 UCX  ERROR ibv_create_cq(cqe=256) failed: Connection timed out
[1741042077.260709] [ohm:244284:0]        ib_iface.c:1059 UCX  ERROR ibv_create_cq(cqe=256) failed: Connection timed out
[1741042077.260682] [ohm:244269:0]        ib_iface.c:1059 UCX  ERROR ibv_create_cq(cqe=256) failed: Connection timed out
[1741042077.260685] [ohm:244265:0]        ib_iface.c:1059 UCX  ERROR ibv_create_cq(cqe=256) failed: Connection timed out
[1741042077.260794] [ohm:244270:0]        ib_iface.c:1059 UCX  ERROR ibv_create_cq(cqe=256) failed: Connection timed out
[1741042077.261005] [ohm:244280:0]        ib_iface.c:1059 UCX  ERROR ibv_create_cq(cqe=256) failed: Connection timed out
[1741042077.261175] [ohm:244273:0]        ib_iface.c:1059 UCX  ERROR ibv_create_cq(cqe=256) failed: Connection timed out
[1741042077.261242] [ohm:244264:0]        ib_iface.c:1059 UCX  ERROR ibv_create_cq(cqe=256) failed: Connection timed out
[1741042077.268405] [ohm:244267:0]        ib_iface.c:1059 UCX  ERROR ibv_create_cq(cqe=256) failed: Connection timed out
[1741042077.268447] [ohm:244308:0]        ib_iface.c:1059 UCX  ERROR ibv_create_cq(cqe=256) failed: Connection timed out
[1741042077.269194] [ohm:244316:0]        ib_iface.c:1059 UCX  ERROR ibv_create_cq(cqe=256) failed: Connection timed out
[1741042077.269418] [ohm:244294:0]        ib_iface.c:1059 UCX  ERROR ibv_create_cq(cqe=256) failed: Connection timed out
[1741042077.269804] [ohm:244282:0]        ib_iface.c:1059 UCX  ERROR ibv_create_cq(cqe=256) failed: Connection timed out
[1741042077.270183] [ohm:244289:0]        ib_iface.c:1059 UCX  ERROR ibv_create_cq(cqe=256) failed: Connection timed out
[1741042077.270678] [ohm:244283:0]        ib_iface.c:1059 UCX  ERROR ibv_create_cq(cqe=256) failed: Connection timed out
[1741042077.272117] [ohm:244295:0]        ib_iface.c:1059 UCX  ERROR ibv_create_cq(cqe=256) failed: Connection timed out
[1741042077.272139] [ohm:244288:0]        ib_iface.c:1059 UCX  ERROR ibv_create_cq(cqe=256) failed: Connection timed out
[1741042077.272718] [ohm:244301:0]        ib_iface.c:1059 UCX  ERROR ibv_create_cq(cqe=256) failed: Connection timed out
[1741042077.272836] [ohm:244287:0]        ib_iface.c:1059 UCX  ERROR ibv_create_cq(cqe=256) failed: Connection timed out

--------------------------------
SUGGESTED CITATIONS FOR THIS RUN
--------------------------------

Below you find a list of papers that are relevant to this ORCA run
We neither can nor want to force you to cite these papers, but we appreciate if you do
You receive ORCA, which is the product of decades of hard work by many enthusiastic individuals, for free
The only thing we kindly ask in return is that you cite our papers,
We deeply appreciate it, if you show your appreciation for ORCA by not just citing the generic ORCA reference.

Please note that relegating all ORCA citations to the supporting information does *not* help us.
SI sections are not indexed - citations you put there will not count into any citation statistics
But we need these citations in order to attract the funding resources that allow us to do what we are doing

Therefore, if you are a happy ORCA user, please consider citing a few of the papers listed below in the main body of your paper

In addition to the list printed below, the program has created the file orca.bibtex that contains the list in bibtex format
You can import this file easily into all common literature databanks and citation aid programs


List of essential papers. We consider these as the minimum necessary citations

  1. Neese,F.
     Software update: the ORCA program system, version 5.0
     WIRES Comput. Molec. Sci., 2022 12(1)e1606
     doi.org/10.1002/wcms.1606

List of papers to cite with high priority. The work reported in these papers was absolutely
necessary for this run to complete.
Our perspective: the developers of density functionals and basis sets usually get cited in chemistry papers
Good! But without the algorithms to do something with them, the functionals or basis sets would not do anything.
Hence, in our opinion, the algorithm design and method developments papers are equally worthy of getting cited

  1. Neese,F.; Olbrich,G.
     Efficient use of the resolution of the identity approximation in time-dependent density functional calculations with hybrid density functionals
     Chem. Phys. Lett., 2002 362 170-178
     doi.org/10.1016/s0009-2614(02)01053-9
  2. Neese,F.
     An improvement of the resolution of the identity approximation for the formation of the Coulomb matrix
     J. Comp. Chem., 2003 24(14)1740-1747
     doi.org/10.1002/jcc.10318
  3. Neese,F.; Wennmohs,F.; Hansen,A.; Becker,U.
     Efficient, approximate and parallel Hartree-Fock and hybrid DFT calculations. A 'chain-of-spheres' algorithm for the Hartree-Fock exchange
     Chem. Phys., 2009 356(1-3)98-109
     doi.org/10.1016/j.chemphys.2008.10.036
  4. Petrenko,T.; Kossmann,S.; Neese,F.
     Efficient time-dependent density functional theory approximations for hybrid density functionals: Analytical gradients and parallelization
     J. Chem. Phys., 2011 134 054116
     doi.org/10.1063/1.3533441
  5. Helmich-Paris,B.; de Souza,B.; Neese,F.; Izsák,R.
     An improved chain of spheres for exchange algorithm
     J. Chem. Phys., 2021 155 104109
     doi.org/doi: 10.1063/5.0058766.
  6. Neese,F.
     The SHARK Integral Generation and Digestion System
     J. Comp. Chem., 2022  1-16
     doi.org/10.1002/jcc.26942
  7. Lehtola,S.; Steigemann,C.; Oliveira,M.; Marques,M.
     Recent developments in Libxc - A comprehensive library of functionals for density functional theory
     Software X, 2018 7 
     doi.org/10.1016/j.softx.2017.11.002
  8. Grimme,S.; Antony,J.; Ehrlich,S.; Krieg,H.
     A consistent and accurate ab initio parametrization of density functional dispersion correction (DFT-D) for the 94 elements H-Pu
     J. Chem. Phys., 2010 132 154104-XXXX
     doi.org/10.1063/1.3382344
  9. Grimme,S.; Ehrlich,S.; Goerigk,L.
     Effect of the damping function in dispersion corrected density functional theory
     J. Comput. Chem., 2011 32(7)1456-1465
     doi.org/10.1002/jcc.21759

List of suggested additional citations. These are papers that are important in the 'surrounding' of 
of this run, or papers that preceded the highly important papers. If you like your results we are grateful for a citation.

  1. Izsak,R.; Neese,F.
     An overlap fitted chain of spheres exchange method
     J. Chem. Phys., 2011 135 144105
     doi.org/10.1063/1.3646921
  2. Izsak,R.; Hansen,A.; Neese,F.
     The resolution of identity and chain of spheres approximations for the LPNO-CCSD singles Fock term
     Molec. Phys., 2012 110 2413-2417
     doi.org/10.1080/00268976.2012.687466
  3. Neese,F.
     The ORCA program system
     WIRES Comput. Molec. Sci., 2012 2(1)73-78
     doi.org/10.1002/wcms.81
  4. Izsak,R.; Neese,F.; Klopper,W.
     Robust fitting techniques in the chain of spheres approximation to the Fock exchange: The role of the complementary space
     J. Chem. Phys., 2013 139 
     doi.org/10.1063/1.4819264
  5. Neese,F.
     Software update: the ORCA program system, version 4.0
     WIRES Comput. Molec. Sci., 2018 8(1)1-6
     doi.org/10.1002/wcms.1327
  6. Neese,F.; Wennmohs,F.; Becker,U.; Riplinger,C.
     The ORCA quantum chemistry program package
     J. Chem. Phys., 2020 152 Art. No. L224108
     doi.org/10.1063/5.0004608

List of optional additional citations

  1. Neese,F.
     Approximate second-order SCF convergence for spin unrestricted wavefunctions
     Chem. Phys. Lett., 2000 325(1-3)93-98
     doi.org/10.1016/s0009-2614(00)00662-x

Timings for individual modules:

Sum of individual times          ...       19.095 sec (=   0.318 min)
Startup calculation              ...        5.154 sec (=   0.086 min)  27.0 %
SCF iterations                   ...        5.799 sec (=   0.097 min)  30.4 %
Property integrals               ...        0.914 sec (=   0.015 min)   4.8 %
Property calculations            ...        0.926 sec (=   0.015 min)   4.8 %
CIS module                       ...        6.303 sec (=   0.105 min)  33.0 %
                             ****ORCA TERMINATED NORMALLY****
TOTAL RUN TIME: 0 days 0 hours 0 minutes 20 seconds 102 msec
