
                                 *****************
                                 * O   R   C   A *
                                 *****************

                                            #,                                       
                                            ###                                      
                                            ####                                     
                                            #####                                    
                                            ######                                   
                                           ########,                                 
                                     ,,################,,,,,                         
                               ,,#################################,,                 
                          ,,##########################################,,             
                       ,#########################################, ''#####,          
                    ,#############################################,,   '####,        
                  ,##################################################,,,,####,       
                ,###########''''           ''''###############################       
              ,#####''   ,,,,##########,,,,          '''####'''          '####       
            ,##' ,,,,###########################,,,                        '##       
           ' ,,###''''                  '''############,,,                           
         ,,##''                                '''############,,,,        ,,,,,,###''
      ,#''                                            '''#######################'''  
     '                                                          ''''####''''         
             ,#######,   #######,   ,#######,      ##                                
            ,#'     '#,  ##    ##  ,#'     '#,    #''#        ,####,   ,####,        
            ##       ##  ##   ,#'  ##            #'  '#       #'       #'  '#        
            ##       ##  #######   ##           ,######,      #####,   #    #        
            '#,     ,#'  ##    ##  '#,     ,#' ,#      #,     #,   #   #,  ,#        
             '#######'   ##     ##  '#######'  #'      '#     '####' # '####'        



                #########################################################
                #                        -***-                          #
                #          Department of theory and spectroscopy        #
                #                                                       #
                #                      Frank Neese                      #
                #                                                       #
                #     Directorship, Architecture, Infrastructure        #
                #                    SHARK, DRIVERS                     #
                #        Core code/Algorithms in most modules           #
                #                                                       #
                #        Max Planck Institute fuer Kohlenforschung      #
                #                Kaiser Wilhelm Platz 1                 #
                #                 D-45470 Muelheim/Ruhr                 #
                #                      Germany                          #
                #                                                       #
                #                  All rights reserved                  #
                #                        -***-                          #
                #########################################################


                         Program Version 6.0.0  -   RELEASE  -


 With contributions from (in alphabetic order):
   Daniel Aravena         : Magnetic Suceptibility
   Michael Atanasov       : Ab Initio Ligand Field Theory (pilot matlab implementation)
   Alexander A. Auer      : GIAO ZORA, VPT2 properties, NMR spectrum
   Ute Becker             : All parallelization in ORCA, NUMFREQ, NUMCALC
   Giovanni Bistoni       : ED, misc. LED, open-shell LED, HFLD
   Martin Brehm           : Molecular dynamics
   Dmytro Bykov           : pre 5.0 version of the SCF Hessian
   Marcos Casanova-Páez   : Triplet and SCS-CIS(D). UHF-(DLPNO)-IP/EA/STEOM-CCSD. UHF-CVS-IP/STEOM-CCSD
   Vijay G. Chilkuri      : MRCI spin determinant printing, contributions to CSF-ICE
   Pauline Colinet        : FMM embedding
   Dipayan Datta          : RHF DLPNO-CCSD density
   Achintya Kumar Dutta   : EOM-CC, STEOM-CC
   Nicolas Foglia         : Exact transition moments, OPA infrastructure, MCD improvements
   Dmitry Ganyushin       : Spin-Orbit,Spin-Spin,Magnetic field MRCI
   Miquel Garcia          : C-PCM and meta-GGA Hessian, CCSD/C-PCM, Gaussian charge scheme
   Tiago L. C. Gouveia    : GS-ROHF, GS-ROCIS
   Yang Guo               : DLPNO-NEVPT2, F12-NEVPT2, CIM, IAO-localization
   Andreas Hansen         : Spin unrestricted coupled pair/coupled cluster methods
   Ingolf Harden          : AUTO-CI MPn and infrastructure 
   Benjamin Helmich-Paris : MC-RPA, TRAH-(SCF,CASSCF), AVAS, COSX integrals, SCF dyn. polar.
   Lee Huntington         : MR-EOM, pCC
   Robert Izsak           : Overlap fitted RIJCOSX, COSX-SCS-MP3, EOM
   Riya Kayal             : Wick's Theorem for AUTO-CI, AUTO-CI UHF-CCSDT
   Emily Kempfer          : AUTO-CI, RHF CISDT and CCSDT
   Christian Kollmar      : KDIIS, OOCD, Brueckner-CCSD(T), CCSD density, CASPT2, CASPT2-K, improved NEVPT2
   Axel Koslowski         : Symmetry handling
   Simone Kossmann        : Meta GGA functionals, TD-DFT gradient, OOMP2, (MP2 Hessian; deprecated post 5.0)
   Lucas Lang             : DCDCAS
   Marvin Lechner         : AUTO-CI (C++ implementation), FIC-MRCC
   Spencer Leger          : CASSCF response
   Dagmar Lenk            : GEPOL surface, SMD, ORCA-2-JSON
   Dimitrios Liakos       : Extrapolation schemes; Compound Job, initial MDCI parallelization
   Dimitrios Manganas     : Further ROCIS development; embedding schemes. LFT, Crystal Embedding
   Dimitrios Pantazis     : SARC Basis sets
   Anastasios Papadopoulos: AUTO-CI, single reference methods and gradients
   Taras Petrenko         : pre 6.0 DFT Hessian and TD-DFT gradient, (ASA, deprecated), ECA, 1-Electron XAS/XES, NRVS
   Peter Pinski           : DLPNO-MP2, DLPNO-MP2 Gradient
   Christoph Reimann      : Effective Core Potentials
   Marius Retegan         : Local ZFS, SOC
   Christoph Riplinger    : Optimizer, TS searches, QM/MM, DLPNO-CCSD(T), (RO)-DLPNO pert. Triples
   Michael Roemelt        : Original ROCIS implementation
   Masaaki Saitow         : Open-shell DLPNO-CCSD energy and density
   Barbara Sandhoefer     : DKH picture change effects
   Kantharuban Sivalingam : CASSCF convergence/infrastructure, NEVPT2 and variants, FIC-MRCI
   Bernardo de Souza      : ESD, SOC TD-DFT
   Georgi Stoychev        : AutoAux, RI-MP2 NMR, DLPNO-MP2 response, X2C
   Van Anh Tran           : RI-MP2 g-tensors
   Willem Van den Heuvel  : Paramagnetic NMR
   Zikuan Wang            : NOTCH, Electric field optimization 
   Frank Wennmohs         : Technical directorship and infrastructure
   Hang Xu                : AUTO-CI-Response properties 


 We gratefully acknowledge several colleagues who have allowed us to
 interface, adapt or use parts of their codes:
   Stefan Grimme, W. Hujo, H. Kruse, P. Pracht,  : VdW corrections, initial TS optimization,
                  C. Bannwarth, S. Ehlert,         DFT functionals, gCP, sTDA/sTD-DF
                  L. Wittmann, M. Mueller
   Ed Valeev, F. Pavosevic, A. Kumar             : LibInt (2-el integral package), F12 methods
   Garnet Chan, S. Sharma, J. Yang, R. Olivares  : DMRG
   Ulf Ekstrom                                   : XCFun DFT Library
   Mihaly Kallay                                 : mrcc  (arbitrary order and MRCC methods)
   Frank Weinhold                                : gennbo (NPA and NBO analysis)
   Simon Mueller                                 : openCOSMO-RS
   Christopher J. Cramer and Donald G. Truhlar   : smd solvation model
   Lars Goerigk                                  : TD-DFT with DH, B97 family of functionals
   V. Asgeirsson, H. Jonsson                     : NEB implementation
   FAccTs GmbH                                   : IRC, NEB, NEB-TS, DLPNO-Multilevel, CI-OPT
                                                   MM, QMMM, 2- and 3-layer-ONIOM, Crystal-QMMM,
                                                   LR-CPCM, SF, NACMEs, symmetry and pop. for TD-DFT,
                                                   nearIR, NL-DFT gradient (VV10), updates on ESD,
                                                   ML-optimized integration grids, MBIS, APM,
                                                   GOAT, DOCKER, SOLVATOR, interface openCOSMO-RS
   S Lehtola, MJT Oliveira, MAL Marques          : LibXC Library
   Liviu Ungur et al                             : ANISO software


 Your calculation uses the libint2 library for the computation of 2-el integrals
 For citations please refer to: http://libint.valeyev.net

 Your ORCA version has been built with support for libXC version: 6.2.2
 For citations please refer to: https://libxc.gitlab.io

 This ORCA versions uses:
   CBLAS   interface :  Fast vector & matrix operations
   LAPACKE interface :  Fast linear algebra routines
   SCALAPACK package :  Parallel linear algebra routines
   Shared memory     :  Shared parallel matrices
   BLAS/LAPACK       :  OpenBLAS 0.3.27  USE64BITINT DYNAMIC_ARCH NO_AFFINITY Zen SINGLE_THREADED
        Core in use  :  Zen
   Copyright (c) 2011-2014, The OpenBLAS Project


Your calculation utilizes the atom-pairwise dispersion correction
with the Becke-Johnson damping scheme (D3BJ)


Warning: RI is on but no J-basis has been assigned. Assigning Def2/J (nothing to worry about!)
================================================================================

----- Orbital basis set information -----
Your calculation utilizes the basis: def2-TZVPPD
   F. Weigend and R. Ahlrichs, Phys. Chem. Chem. Phys. 7, 3297 (2005).
   D. Rappoport and F. Furche, J. Chem. Phys. 133, 134105 (2010)
   D. Rappoport, J. Chem. Phys. 155, 124102 (2021).

----- AuxJ basis set information -----
Your calculation utilizes the auxiliary basis: def2/J
   F. Weigend, Phys. Chem. Chem. Phys. 8, 1057 (2006).

================================================================================
                                        WARNINGS
                       Please study these warnings very carefully!
================================================================================

Using LibXC functional ID 531 : wB97M-V exchange-correlation functional
[ 1]  N. Mardirossian and M. Head-Gordon.,  J. Chem. Phys. 144, 214110 (2016)
Using LibXC functional ID 531 : wB97M-V exchange-correlation functional
[ 1]  N. Mardirossian and M. Head-Gordon.,  J. Chem. Phys. 144, 214110 (2016)

WARNING: B97M-V or wB97M-V functional requested.
  ===> : libXC variant has now been activated.
         Any manually given DFX/HFX/RangeSep scaling parameters are IGNORED!

Your calculation utilizes LibXC
 by S Lehtola, C Steigemann, MJT Oliveira & MAL Marques
Please cite in your paper:
 S Lehtola, C Steigemann, MJT Oliveira & MAL Marques, SoftwareX, 7, (2018), 1.
   


WARNING: your system is open-shell and RHF/RKS was chosen
  ===> : WILL SWITCH to UHF/UKS

INFO   : Checking CIS options ...

WARNING: CIS/ROCIS methods need fully converged wavefunctions
  ===> : Setting SCFConvForced true
         You can overwrite this default with %scf ConvForced false 


================================================================================
                                       INPUT FILE
================================================================================
NAME = orca.inp
|  1> ! Engrad wB97M-D3BJ def2-TZVPPD 
|  2> %pal nprocs 8 end%pal nprocs 16 end 
|  3> %tddft nroots 2 Iroot 1
|  4>  sf true 
|  5> end 
|  6> *xyz 0 3 
|  7> O   0.71282122617851 1.00204969961165 -0.00020197175
|  8> C   0.76567068521669 -0.33545183366487 -0.00010812364292
|  9> C   -0.64609334206611 -0.59451769508056 9.139777136e-05
| 10> H   1.26614251852451 -0.75993206366859 0.88269751469916
| 11> H   1.2659421805489 -0.76022664221675 -0.88290043837717
| 12> H   -1.20465100647431 -0.53610854526698 -0.92389105843177
| 13> H   -1.20421632505204 -0.5356451186337 0.92431267973135
| 14> *
| 15> 
| 16>                          ****END OF INPUT****
================================================================================

                     *******************************
                     * Energy+Gradient Calculation *
                     *******************************

---------------------------------
CARTESIAN COORDINATES (ANGSTROEM)
---------------------------------
  O      0.712821    1.002050   -0.000202
  C      0.765671   -0.335452   -0.000108
  C     -0.646093   -0.594518    0.000091
  H      1.266143   -0.759932    0.882698
  H      1.265942   -0.760227   -0.882900
  H     -1.204651   -0.536109   -0.923891
  H     -1.204216   -0.535645    0.924313

----------------------------
CARTESIAN COORDINATES (A.U.)
----------------------------
  NO LB      ZA    FRAG     MASS         X           Y           Z
   0 O     8.0000    0    15.999    1.347037    1.893600   -0.000382
   1 C     6.0000    0    12.011    1.446908   -0.633912   -0.000204
   2 C     6.0000    0    12.011   -1.220939   -1.123476    0.000173
   3 H     1.0000    0     1.008    2.392663   -1.436063    1.668057
   4 H     1.0000    0     1.008    2.392284   -1.436620   -1.668440
   5 H     1.0000    0     1.008   -2.276460   -1.013098   -1.745901
   6 H     1.0000    0     1.008   -2.275639   -1.012223    1.746698

--------------------------------
INTERNAL COORDINATES (ANGSTROEM)
--------------------------------
 O      0   0   0     0.000000000000     0.00000000     0.00000000
 C      1   0   0     1.338545264698     0.00000000     0.00000000
 C      2   1   0     1.435337183065    98.13559441     0.00000000
 H      2   1   3     1.100000598494   113.80404638   241.30662166
 H      2   1   3     1.100012489918   113.81303298   118.69640496
 H      3   2   1     1.081268640358   119.88253740    80.27824618
 H      3   2   1     1.081273426300   119.86685308   279.73772356

---------------------------
INTERNAL COORDINATES (A.U.)
---------------------------
 O      0   0   0     0.000000000000     0.00000000     0.00000000
 C      1   0   0     2.529483968136     0.00000000     0.00000000
 C      2   1   0     2.712394185827    98.13559441     0.00000000
 H      2   1   3     2.078699878303   113.80404638   241.30662166
 H      2   1   3     2.078722349838   113.81303298   118.69640496
 H      3   2   1     2.043301607475   119.88253740    80.27824618
 H      3   2   1     2.043310651594   119.86685308   279.73772356

---------------------
BASIS SET INFORMATION
---------------------
There are 3 groups of distinct atoms

 Group   1 Type O   : 12s7p3d1f contracted to 6s4p3d1f pattern {621111/4111/111/1}
 Group   2 Type C   : 12s6p3d1f contracted to 6s3p3d1f pattern {621111/411/111/1}
 Group   3 Type H   : 5s3p1d contracted to 3s3p1d pattern {311/111/1}

Atom   0O    basis set group =>   1
Atom   1C    basis set group =>   2
Atom   2C    basis set group =>   2
Atom   3H    basis set group =>   3
Atom   4H    basis set group =>   3
Atom   5H    basis set group =>   3
Atom   6H    basis set group =>   3
---------------------------------
AUXILIARY/J BASIS SET INFORMATION
---------------------------------
There are 3 groups of distinct atoms

 Group   1 Type O   : 12s5p4d2f1g contracted to 6s4p3d1f1g pattern {711111/2111/211/2/1}
 Group   2 Type C   : 12s5p4d2f1g contracted to 6s4p3d1f1g pattern {711111/2111/211/2/1}
 Group   3 Type H   : 5s2p1d contracted to 3s1p1d pattern {311/2/1}

Atom   0O    basis set group =>   1
Atom   1C    basis set group =>   2
Atom   2C    basis set group =>   2
Atom   3H    basis set group =>   3
Atom   4H    basis set group =>   3
Atom   5H    basis set group =>   3
Atom   6H    basis set group =>   3
[1739830258.738702] [ohm:3839507:0]        ib_iface.c:1059 UCX  ERROR ibv_create_cq(cqe=256) failed: Connection timed out
[1739830258.739147] [ohm:3839509:0]        ib_iface.c:1059 UCX  ERROR ibv_create_cq(cqe=256) failed: Connection timed out
[1739830258.739778] [ohm:3839511:0]        ib_iface.c:1059 UCX  ERROR ibv_create_cq(cqe=256) failed: Connection timed out
[1739830258.740749] [ohm:3839515:0]        ib_iface.c:1059 UCX  ERROR ibv_create_cq(cqe=256) failed: Connection timed out
[1739830258.743484] [ohm:3839519:0]        ib_iface.c:1059 UCX  ERROR ibv_create_cq(cqe=256) failed: Connection timed out
[1739830258.747025] [ohm:3839508:0]        ib_iface.c:1059 UCX  ERROR ibv_create_cq(cqe=256) failed: Connection timed out
[1739830258.747025] [ohm:3839510:0]        ib_iface.c:1059 UCX  ERROR ibv_create_cq(cqe=256) failed: Connection timed out
[1739830258.747048] [ohm:3839512:0]        ib_iface.c:1059 UCX  ERROR ibv_create_cq(cqe=256) failed: Connection timed out
[1739830258.758789] [ohm:3839514:0]        ib_iface.c:1059 UCX  ERROR ibv_create_cq(cqe=256) failed: Connection timed out
[1739830258.759097] [ohm:3839513:0]        ib_iface.c:1059 UCX  ERROR ibv_create_cq(cqe=256) failed: Connection timed out
[1739830258.759324] [ohm:3839517:0]        ib_iface.c:1059 UCX  ERROR ibv_create_cq(cqe=256) failed: Connection timed out
[1739830258.759324] [ohm:3839520:0]        ib_iface.c:1059 UCX  ERROR ibv_create_cq(cqe=256) failed: Connection timed out
[1739830258.770284] [ohm:3839530:0]        ib_iface.c:1059 UCX  ERROR ibv_create_cq(cqe=256) failed: Connection timed out
[1739830258.770654] [ohm:3839524:0]        ib_iface.c:1059 UCX  ERROR ibv_create_cq(cqe=256) failed: Connection timed out
[1739830258.770944] [ohm:3839535:0]        ib_iface.c:1059 UCX  ERROR ibv_create_cq(cqe=256) failed: Connection timed out
[1739830258.778781] [ohm:3839533:0]        ib_iface.c:1059 UCX  ERROR ibv_create_cq(cqe=256) failed: Connection timed out


           ************************************************************
           *        Program running with 16 parallel MPI-processes    *
           *              working on a common directory               *
           ************************************************************
------------------------------------------------------------------------------
                             ORCA STARTUP CALCULATIONS
                           -- RI-GTO INTEGRALS CHOSEN --
------------------------------------------------------------------------------
------------------------------------------------------------------------------
                   ___                                                        
                  /   \      - P O W E R E D   B Y -                         
                 /     \                                                     
                 |  |  |   _    _      __       _____    __    __             
                 |  |  |  | |  | |    /  \     |  _  \  |  |  /  |          
                  \  \/   | |  | |   /    \    | | | |  |  | /  /          
                 / \  \   | |__| |  /  /\  \   | |_| |  |  |/  /          
                |  |  |   |  __  | /  /__\  \  |    /   |      \           
                |  |  |   | |  | | |   __   |  |    \   |  |\   \          
                \     /   | |  | | |  |  |  |  | |\  \  |  | \   \       
                 \___/    |_|  |_| |__|  |__|  |_| \__\ |__|  \__/        
                                                                              
                      - O R C A' S   B I G   F R I E N D -                    
                                      &                                       
                       - I N T E G R A L  F E E D E R -                       
                                                                              
 v1 FN, 2020, v2 2021, v3 2022-2024                                           
------------------------------------------------------------------------------


----------------------
SHARK INTEGRAL PACKAGE
----------------------

Number of atoms                             ...      7
Number of basis functions                   ...    182
Number of shells                            ...     68
Maximum angular momentum                    ...      3
Integral batch strategy                     ... SHARK/LIBINT Hybrid
RI-J (if used) integral strategy            ... SPLIT-RIJ (Revised 2003 algorithm where possible)
Printlevel                                  ...      1
Contraction scheme used                     ... SEGMENTED contraction
Prescreening option                         ... SCHWARTZ
   Thresh                                   ... 2.500e-11
   Tcut                                     ... 2.500e-12
   Tpresel                                  ... 2.500e-12 
Coulomb Range Separation                    ... NOT USED
Exchange Range Separation                   ... Long Range
   Mu parameter                             ... 3.000e-01
   Scaling (regular/separated)              ... 1.500e-01 8.500e-01
Multipole approximations                    ... NOT USED
Finite Nucleus Model                        ... NOT USED
CABS basis                                  ... NOT available
Auxiliary Coulomb fitting basis             ... AVAILABLE
   # of basis functions in Aux-J            ...    191
   # of shells in Aux-J                     ...     65
   Maximum angular momentum in Aux-J        ...      4
Auxiliary J/K fitting basis                 ... NOT available
Auxiliary Correlation fitting basis         ... NOT available
Auxiliary 'external' fitting basis          ... NOT available

Checking pre-screening integrals            ... done (  0.0 sec) Dimension = 68
Check shell pair data                       ... done (  0.0 sec)
Shell pair information
Shell pair cut-off parameter TPreSel        ...   2.5e-12
Total number of shell pairs                 ...      2346
Shell pairs after pre-screening             ...      2335
Total number of primitive shell pairs       ...      5434
Primitive shell pairs kept                  ...      4859
          la=0 lb=0:    457 shell pairs
          la=1 lb=0:    658 shell pairs
          la=1 lb=1:    253 shell pairs
          la=2 lb=0:    389 shell pairs
          la=2 lb=1:    286 shell pairs
          la=2 lb=2:     91 shell pairs
          la=3 lb=0:     90 shell pairs
          la=3 lb=1:     66 shell pairs
          la=3 lb=2:     39 shell pairs
          la=3 lb=3:      6 shell pairs

Calculating one electron integrals          ... done (  0.0 sec)
Calculating RI/J V-Matrix + Cholesky decomp.... done (  0.0 sec)
Calculating Nuclear repulsion               ... done (  0.0 sec) ENN=     70.639135624375 Eh

Diagonalization of the overlap matrix:
Smallest eigenvalue                        ... 1.547e-05
Time for diagonalization                   ...    0.003 sec
Threshold for overlap eigenvalues          ... 1.000e-07
Number of eigenvalues below threshold      ... 0
Time for construction of square roots      ...    0.001 sec
Total time needed                          ...    0.005 sec

-------------------
DFT GRID GENERATION
-------------------

General Integration Accuracy     IntAcc      ... 4.388
Radial Grid Type                 RadialGrid  ... OptM3 with GC (2021)
Angular Grid (max. ang.)         AngularGrid ... 4 (Lebedev-302)
Angular grid pruning method      GridPruning ... 4 (adaptive)
Weight generation scheme         WeightScheme... mBecke (2022)
Basis function cutoff            BFCut       ... 1.0000e-11
Integration weight cutoff        WCut        ... 1.0000e-14
Partially contracted basis set               ... off
Rotationally invariant grid construction     ... off
Angular grids for H and He will be reduced by one unit
Diffuse basis detected: some atoms will have their outermost
                        angular grid increased by 1.

Total number of grid points                  ...    33076
Total number of batches                      ...      521
Average number of points per batch           ...       63
Average number of grid points per atom       ...     4725

--------------------
COSX GRID GENERATION
--------------------

GRIDX 1
-------
General Integration Accuracy     IntAcc      ... 3.816
Radial Grid Type                 RadialGrid  ... OptM3 with GC (2021)
Angular Grid (max. ang.)         AngularGrid ... 1 (Lebedev-50)
Angular grid pruning method      GridPruning ... 4 (adaptive)
Weight generation scheme         WeightScheme... mBecke (2022)
Basis function cutoff            BFCut       ... 1.0000e-11
Integration weight cutoff        WCut        ... 1.0000e-14
Partially contracted basis set               ... on
Rotationally invariant grid construction     ... off
Angular grids for H and He will be reduced by one unit
Diffuse basis detected: some atoms will have their outermost
                        angular grid increased by 1.

Total number of grid points                  ...     4157
Total number of batches                      ...       36
Average number of points per batch           ...      115
Average number of grid points per atom       ...      594
UseSFitting                                  ... on

GRIDX 2
-------
General Integration Accuracy     IntAcc      ... 4.020
Radial Grid Type                 RadialGrid  ... OptM3 with GC (2021)
Angular Grid (max. ang.)         AngularGrid ... 2 (Lebedev-110)
Angular grid pruning method      GridPruning ... 4 (adaptive)
Weight generation scheme         WeightScheme... mBecke (2022)
Basis function cutoff            BFCut       ... 1.0000e-11
Integration weight cutoff        WCut        ... 1.0000e-14
Partially contracted basis set               ... on
Rotationally invariant grid construction     ... off
Angular grids for H and He will be reduced by one unit
Diffuse basis detected: some atoms will have their outermost
                        angular grid increased by 1.

Total number of grid points                  ...    10209
Total number of batches                      ...       84
Average number of points per batch           ...      121
Average number of grid points per atom       ...     1458
UseSFitting                                  ... on

GRIDX 3
-------
General Integration Accuracy     IntAcc      ... 4.338
Radial Grid Type                 RadialGrid  ... OptM3 with GC (2021)
Angular Grid (max. ang.)         AngularGrid ... 3 (Lebedev-194)
Angular grid pruning method      GridPruning ... 4 (adaptive)
Weight generation scheme         WeightScheme... mBecke (2022)
Basis function cutoff            BFCut       ... 1.0000e-11
Integration weight cutoff        WCut        ... 1.0000e-14
Partially contracted basis set               ... on
Rotationally invariant grid construction     ... off
Angular grids for H and He will be reduced by one unit
Diffuse basis detected: some atoms will have their outermost
                        angular grid increased by 1.

Total number of grid points                  ...    23023
Total number of batches                      ...      185
Average number of points per batch           ...      124
Average number of grid points per atom       ...     3289
UseSFitting                                  ... on
Initializing property integral containers    ... done (  0.0 sec)

SHARK setup successfully completed in   0.3 seconds

Maximum memory used throughout the entire STARTUP-calculation: 13.8 MB
[1739830259.755206] [ohm:3839602:0]        ib_iface.c:1059 UCX  ERROR ibv_create_cq(cqe=256) failed: Connection timed out
[1739830259.755480] [ohm:3839606:0]        ib_iface.c:1059 UCX  ERROR ibv_create_cq(cqe=256) failed: Connection timed out
[1739830259.755723] [ohm:3839604:0]        ib_iface.c:1059 UCX  ERROR ibv_create_cq(cqe=256) failed: Connection timed out
[1739830259.776901] [ohm:3839612:0]        ib_iface.c:1059 UCX  ERROR ibv_create_cq(cqe=256) failed: Connection timed out
[1739830259.777930] [ohm:3839600:0]        ib_iface.c:1059 UCX  ERROR ibv_create_cq(cqe=256) failed: Connection timed out
[1739830259.778386] [ohm:3839601:0]        ib_iface.c:1059 UCX  ERROR ibv_create_cq(cqe=256) failed: Connection timed out
[1739830259.778385] [ohm:3839599:0]        ib_iface.c:1059 UCX  ERROR ibv_create_cq(cqe=256) failed: Connection timed out
[1739830259.778423] [ohm:3839605:0]        ib_iface.c:1059 UCX  ERROR ibv_create_cq(cqe=256) failed: Connection timed out
[1739830259.778463] [ohm:3839603:0]        ib_iface.c:1059 UCX  ERROR ibv_create_cq(cqe=256) failed: Connection timed out
[1739830259.780059] [ohm:3839609:0]        ib_iface.c:1059 UCX  ERROR ibv_create_cq(cqe=256) failed: Connection timed out
[1739830259.782438] [ohm:3839607:0]        ib_iface.c:1059 UCX  ERROR ibv_create_cq(cqe=256) failed: Connection timed out
[1739830259.782445] [ohm:3839611:0]        ib_iface.c:1059 UCX  ERROR ibv_create_cq(cqe=256) failed: Connection timed out
[1739830259.796522] [ohm:3839614:0]        ib_iface.c:1059 UCX  ERROR ibv_create_cq(cqe=256) failed: Connection timed out
[1739830259.799366] [ohm:3839629:0]        ib_iface.c:1059 UCX  ERROR ibv_create_cq(cqe=256) failed: Connection timed out
[1739830259.800176] [ohm:3839622:0]        ib_iface.c:1059 UCX  ERROR ibv_create_cq(cqe=256) failed: Connection timed out
[1739830259.801749] [ohm:3839626:0]        ib_iface.c:1059 UCX  ERROR ibv_create_cq(cqe=256) failed: Connection timed out


           ************************************************************
           *        Program running with 16 parallel MPI-processes    *
           *              working on a common directory               *
           ************************************************************
-------------------------------------------------------------------------------
                                 ORCA GUESS
                   Start orbitals & Density for SCF / CASSCF
-------------------------------------------------------------------------------

------------
SCF SETTINGS
------------
Hamiltonian:
 Density Functional     Method          .... DFT(GTOs)
  Functional kind                       .... Exchange-Correlation
  Functional name                       .... wB97M-V exchange-correlation functional
  Functional family                     .... Hybrid MGGA
  Functional refs                              
    [ 0] N. Mardirossian and M. Head-Gordon.,  J. Chem. Phys. 144, 214110 (2016), doi: 10.1063/1.4952647
  Fraction of HF Exchange (short range) .... 0.1500
  Fraction of HF Exchange (long range)  .... 1.0000
  Range separation parameter mu         .... 0.3000
  Functional external parameters        .... 17
    Parameter  0 _cx00      =  8.500000e-01 : u^00 coefficient for exchange
    Parameter  1 _cx01      =  1.007000e+00 : u^01 coefficient for exchange
    Parameter  2 _cx10      =  2.590000e-01 : u^10 coefficient for exchange
    Parameter  3 _css00     =  4.430000e-01 : u^00 coefficient for same-spin correlation
    Parameter  4 _css04     = -1.437000e+00 : u^04 coefficient for same-spin correlation
    Parameter  5 _css10     = -4.535000e+00 : u^10 coefficient for same-spin correlation
    Parameter  6 _css20     = -3.390000e+00 : u^20 coefficient for same-spin correlation
    Parameter  7 _css43     =  4.278000e+00 : u^43 coefficient for same-spin correlation
    Parameter  8 _cos00     =  1.000000e+00 : u^00 coefficient for opposite-spin correlation
    Parameter  9 _cos10     =  1.358000e+00 : u^10 coefficient for opposite-spin correlation
    Parameter 10 _cos20     =  2.924000e+00 : u^20 coefficient for opposite-spin correlation
    Parameter 11 _cos21     = -8.812000e+00 : u^21 coefficient for opposite-spin correlation
    Parameter 12 _cos60     = -1.390000e+00 : u^60 coefficient for opposite-spin correlation
    Parameter 13 _cos61     =  9.142000e+00 : u^61 coefficient for opposite-spin correlation
    Parameter 14 _alpha     =  1.000000e+00 : fraction of HF exchange
    Parameter 15 _beta      = -8.500000e-01 : fraction of short-range exchange
    Parameter 16 _omega     =  3.000000e-01 : range-separation constant
 Long-range corrected/Screened/Range-Separated Hybrid DFT is turned on
   Amount of maximum screened exact exchange              ....  0.850000
   Range separation parameter mu (erf(mu*r12)/r12)        ....  0.300000
 RI-approximation to the Coulomb term is turned on
   Number of AuxJ basis functions       .... 191
   RIJ-COSX (HFX calculated with COS-X)).... on


General Settings:
 Integral files         IntName         .... orca
 Hartree-Fock type      HFTyp           .... UHF
 Total Charge           Charge          ....    0
 Multiplicity           Mult            ....    3
 Number of Electrons    NEL             ....   24
 Basis Dimension        Dim             ....  182
 Nuclear Repulsion      ENuc            ....     70.6391356244 Eh

Convergence Acceleration:
 AO-DIIS                CNVDIIS         .... on
   Start iteration      DIISMaxIt       ....    12
   Startup error        DIISStart       ....  0.200000
   # of expansion vecs  DIISMaxEq       ....     5
   Bias factor          DIISBfac        ....   1.050
   Max. coefficient     DIISMaxC        ....  10.000
 MO-DIIS                CNVKDIIS        .... off
 Trust-Rad. Augm. Hess. CNVTRAH         .... auto
   Auto Start mean grad. ratio tolernc. ....  1.125000
   Auto Start start iteration           ....    50
   Auto Start num. interpolation iter.  ....    10
   Max. Number of Micro iterations      ....    24
   Max. Number of Macro iterations      .... Maxiter - #DIIS iter
   Number of Davidson start vectors     ....     2
   Converg. threshold    (grad. norm)   ....   1.000e-05
   Grad. Scal. Fac. for Micro threshold ....   0.100
   Minimum threshold for Micro iter.    ....   1.000e-02
   NR start threshold (gradient norm)   ....   1.000e-04
   Initial trust radius                 ....   0.400
   Minimum AH scaling param. (alpha)    ....   1.000
   Maximum AH scaling param. (alpha)    .... 1000.000
   Quad. conv. algorithm                .... NR
   White noise on init. David. guess    .... on
   Maximum white noise                  ....   0.010
   Pseudo random numbers                .... off
   Inactive MOs                         .... canonical
   Orbital update algorithm             .... Taylor
   Preconditioner                       .... Diag
   Full preconditioner red. dimension   ....   250
 SOSCF                  CNVSOSCF        .... on
   Start iteration      SOSCFMaxIt      ....   150
   Startup grad/error   SOSCFStart      ....  0.003300
   Hessian update       SOSCFHessUp     .... L-BFGS
 Level Shifting         CNVShift        .... on
   Level shift para.    LevelShift      ....    0.2500
   Turn off err/grad.   ShiftErr        ....    0.0010
 Zerner damping         CNVZerner       .... off
 Static damping         CNVDamp         .... on
   Fraction old density DampFac         ....    0.7000
   Max. Damping (<1)    DampMax         ....    0.9800
   Min. Damping (>=0)   DampMin         ....    0.0000
   Turn off err/grad.   DampErr         ....    0.1000

SCF Procedure:
 Maximum # iterations   MaxIter         ....   125
 SCF integral mode      SCFMode         .... Direct
   Integral package                     .... SHARK and LIBINT hybrid scheme
 Reset frequency        DirectResetFreq ....    20
 Integral Threshold     Thresh          ....  2.500e-11 Eh
 Primitive CutOff       TCut            ....  2.500e-12 Eh

Convergence Tolerance:
 Convergence Check Mode ConvCheckMode   .... Total+1el-Energy
 Convergence forced     ConvForced      .... 1
 Energy Change          TolE            ....  1.000e-08 Eh
 1-El. energy change                    ....  1.000e-05 Eh
 Orbital Gradient       TolG            ....  1.000e-05
 Orbital Rotation angle TolX            ....  1.000e-05
 DIIS Error             TolErr          ....  5.000e-07

------------------------------
INITIAL GUESS: MODEL POTENTIAL
------------------------------
Loading Hartree-Fock densities                     ... done
Calculating cut-offs                               ... done
Initializing the effective Hamiltonian             ... done
Setting up the integral package (SHARK)            ... done
Starting the Coulomb interaction                   ... done (   0.0 sec)
Making the grid                                    ... done (   0.0 sec)
Mapping shells                                     ... done
Starting the XC term evaluation                    ... done (   0.0 sec)
  promolecular density results
     # of electrons  =     23.999251905
     EX              =    -19.492109626
     EC              =     -0.770959573
     EX+EC           =    -20.263069199
Transforming the Hamiltonian                       ... done (   0.0 sec)
Diagonalizing the Hamiltonian                      ... done (   0.0 sec)
Back transforming the eigenvectors                 ... done (   0.0 sec)
Now organizing SCF variables                       ... done
                      ------------------
                      INITIAL GUESS DONE (   0.1 sec)
                      ------------------
             **** ENERGY FILE WAS UPDATED (orca.en.tmp) ****
Finished Guess after   0.5 sec
Maximum memory used throughout the entire GUESS-calculation: 9.7 MB
[1739830260.560715] [ohm:3839684:0]        ib_iface.c:1059 UCX  ERROR ibv_create_cq(cqe=256) failed: Connection timed out
[1739830260.560717] [ohm:3839686:0]        ib_iface.c:1059 UCX  ERROR ibv_create_cq(cqe=256) failed: Connection timed out
[1739830260.560729] [ohm:3839688:0]        ib_iface.c:1059 UCX  ERROR ibv_create_cq(cqe=256) failed: Connection timed out
[1739830260.561356] [ohm:3839690:0]        ib_iface.c:1059 UCX  ERROR ibv_create_cq(cqe=256) failed: Connection timed out
[1739830260.563482] [ohm:3839685:0]        ib_iface.c:1059 UCX  ERROR ibv_create_cq(cqe=256) failed: Connection timed out
[1739830260.563560] [ohm:3839683:0]        ib_iface.c:1059 UCX  ERROR ibv_create_cq(cqe=256) failed: Connection timed out
[1739830260.563560] [ohm:3839689:0]        ib_iface.c:1059 UCX  ERROR ibv_create_cq(cqe=256) failed: Connection timed out
[1739830260.563636] [ohm:3839687:0]        ib_iface.c:1059 UCX  ERROR ibv_create_cq(cqe=256) failed: Connection timed out
[1739830260.569228] [ohm:3839696:0]        ib_iface.c:1059 UCX  ERROR ibv_create_cq(cqe=256) failed: Connection timed out
[1739830260.570134] [ohm:3839693:0]        ib_iface.c:1059 UCX  ERROR ibv_create_cq(cqe=256) failed: Connection timed out
[1739830260.570927] [ohm:3839691:0]        ib_iface.c:1059 UCX  ERROR ibv_create_cq(cqe=256) failed: Connection timed out
[1739830260.578999] [ohm:3839698:0]        ib_iface.c:1059 UCX  ERROR ibv_create_cq(cqe=256) failed: Connection timed out
[1739830260.579266] [ohm:3839695:0]        ib_iface.c:1059 UCX  ERROR ibv_create_cq(cqe=256) failed: Connection timed out
[1739830260.579686] [ohm:3839703:0]        ib_iface.c:1059 UCX  ERROR ibv_create_cq(cqe=256) failed: Connection timed out
[1739830260.579677] [ohm:3839711:0]        ib_iface.c:1059 UCX  ERROR ibv_create_cq(cqe=256) failed: Connection timed out
[1739830260.584859] [ohm:3839707:0]        ib_iface.c:1059 UCX  ERROR ibv_create_cq(cqe=256) failed: Connection timed out


           ************************************************************
           *        Program running with 16 parallel MPI-processes    *
           *              working on a common directory               *
           ************************************************************

-------------------------------------------------------------------------------------------
                                      ORCA LEAN-SCF
                              memory conserving SCF solver
-------------------------------------------------------------------------------------------

----------------------------------------D-I-I-S--------------------------------------------
Iteration    Energy (Eh)           Delta-E    RMSDP     MaxDP     DIISErr   Damp  Time(sec)
-------------------------------------------------------------------------------------------
               ***  Starting incremental Fock matrix formation  ***
    1    -153.6837101925862612     0.00e+00  9.23e-04  2.42e-02  8.67e-02  0.700   0.4
    2    -153.7138153666991798    -3.01e-02  8.41e-04  2.03e-02  5.41e-02  0.700   0.3
                               ***Turning on AO-DIIS***
    3    -153.7306822897379561    -1.69e-02  6.89e-04  1.92e-02  3.46e-02  0.700   0.3
    4    -153.7412384797527807    -1.06e-02  1.73e-03  4.83e-02  2.84e-02  0.000   0.3
    5    -153.7662934589254178    -2.51e-02  2.20e-04  1.04e-02  1.10e-02  0.000   0.3
    6    -153.7671841312692322    -8.91e-04  1.63e-04  7.42e-03  6.64e-03  0.000   0.3
    7    -153.7677185623034575    -5.34e-04  9.64e-05  3.70e-03  4.80e-03  0.000   0.3
                              *** Initializing SOSCF ***
---------------------------------------S-O-S-C-F--------------------------------------
Iteration    Energy (Eh)           Delta-E    RMSDP     MaxDP     MaxGrad    Time(sec)
--------------------------------------------------------------------------------------
    8    -153.7679412884032217    -2.23e-04  6.40e-05  2.11e-03  1.99e-03     0.3
               *** Restarting incremental Fock matrix formation ***
    9    -153.7680236271262970    -8.23e-05  3.49e-05  1.32e-03  1.80e-03     0.4
   10    -153.7680445350903824    -2.09e-05  5.26e-05  1.87e-03  9.13e-04     0.3
   11    -153.7680546082037267    -1.01e-05  1.88e-05  7.74e-04  2.88e-04     0.3
   12    -153.7680566351199332    -2.03e-06  4.10e-06  1.81e-04  9.00e-05     0.3
   13    -153.7680567159488305    -8.08e-08  1.85e-06  9.02e-05  2.19e-05     0.3
   14    -153.7680567343457483    -1.84e-08  5.53e-07  2.67e-05  1.05e-05     0.3
   15    -153.7680567342000018     1.46e-10  4.82e-07  2.03e-05  2.94e-06     0.3
                 **** Energy Check signals convergence ****

               *****************************************************
               *                     SUCCESS                       *
               *           SCF CONVERGED AFTER  15 CYCLES          *
               *****************************************************

Recomputing exchange energy using gridx3       ... done (    0.413 sec)
Old exchange energy                            :     -6.204717928 Eh
New exchange energy                            :     -6.204721964 Eh
Exchange energy change after final integration :     -0.000004036 Eh
Total energy after final integration           :   -153.768060770 Eh
             **** ENERGY FILE WAS UPDATED (orca.en.tmp) ****

----------------
TOTAL SCF ENERGY
----------------

Total Energy       :       -153.76806076982794 Eh           -4184.24166 eV

Components:
Nuclear Repulsion  :         70.63913562437467 Eh            1922.18860 eV
Electronic Energy  :       -224.40719235857469 Eh           -6106.43015 eV
One Electron Energy:       -347.73407938264700 Eh           -9462.32536 eV
Two Electron Energy:        123.32688702407231 Eh            3355.89521 eV

Virial components:
Potential Energy   :       -307.29417780403878 Eh           -8361.89969 eV
Kinetic Energy     :        153.52611703421081 Eh            4177.65803 eV
Virial Ratio       :          2.00157591255671

DFT components:
N(Alpha)           :       13.000003557299 electrons
N(Beta)            :       10.999994370894 electrons
N(Total)           :       23.999997928193 electrons
E(XC)              :      -14.735121291982 Eh       

---------------
SCF CONVERGENCE
---------------

  Last Energy change         ...   -1.4575e-10  Tolerance :   1.0000e-08
  Last MAX-Density change    ...    2.0285e-05  Tolerance :   1.0000e-07
  Last RMS-Density change    ...    4.8166e-07  Tolerance :   5.0000e-09
  Last DIIS Error            ...    1.9921e-03  Tolerance :   5.0000e-07
  Last Orbital Gradient      ...    2.9359e-06  Tolerance :   1.0000e-05
  Last Orbital Rotation      ...    1.1972e-05  Tolerance :   1.0000e-05


----------------------
UHF SPIN CONTAMINATION
----------------------

Warning: in a DFT calculation there is little theoretical justification to 
         calculate <S**2> as in Hartree-Fock theory. We will do it anyways
         but you should keep in mind that the values have only limited relevance

Expectation value of <S**2>     :     2.008302
Ideal value S*(S+1) for S=1.0   :     2.000000
Deviation                       :     0.008302

----------------
ORBITAL ENERGIES
----------------
                 SPIN UP ORBITALS
  NO   OCC          E(Eh)            E(eV) 
   0   1.0000     -19.398393      -527.8571 
   1   1.0000     -10.406837      -283.1844 
   2   1.0000     -10.347580      -281.5720 
   3   1.0000      -1.198415       -32.6105 
   4   1.0000      -0.872718       -23.7479 
   5   1.0000      -0.736641       -20.0450 
   6   1.0000      -0.637424       -17.3452 
   7   1.0000      -0.597815       -16.2674 
   8   1.0000      -0.554199       -15.0805 
   9   1.0000      -0.512551       -13.9472 
  10   1.0000      -0.442480       -12.0405 
  11   1.0000      -0.427294       -11.6273 
  12   1.0000      -0.300853        -8.1866 
  13   0.0000       0.041198         1.1211 
  14   0.0000       0.063472         1.7272 
  15   0.0000       0.073541         2.0012 
  16   0.0000       0.086690         2.3589 
  17   0.0000       0.117391         3.1944 
  18   0.0000       0.128766         3.5039 
  19   0.0000       0.135145         3.6775 
  20   0.0000       0.138515         3.7692 
  21   0.0000       0.165100         4.4926 
  22   0.0000       0.194322         5.2878 
  23   0.0000       0.207450         5.6450 

                 SPIN DOWN ORBITALS
  NO   OCC          E(Eh)            E(eV) 
   0   1.0000     -19.371943      -527.1374 
   1   1.0000     -10.408122      -283.2194 
   2   1.0000     -10.334786      -281.2238 
   3   1.0000      -1.141174       -31.0529 
   4   1.0000      -0.838865       -22.8267 
   5   1.0000      -0.713592       -19.4178 
   6   1.0000      -0.597516       -16.2592 
   7   1.0000      -0.563435       -15.3319 
   8   1.0000      -0.532119       -14.4797 
   9   1.0000      -0.476552       -12.9676 
  10   1.0000      -0.385210       -10.4821 
  11   0.0000      -0.068066        -1.8522 
  12   0.0000       0.016000         0.4354 
  13   0.0000       0.040017         1.0889 
  14   0.0000       0.064186         1.7466 
  15   0.0000       0.072865         1.9827 
  16   0.0000       0.091902         2.5008 
  17   0.0000       0.116778         3.1777 
  18   0.0000       0.133320         3.6278 
  19   0.0000       0.136167         3.7053 
  20   0.0000       0.144490         3.9318 
  21   0.0000       0.172045         4.6816 
*Only the first 10 virtual orbitals were printed.

                    ********************************
                    * MULLIKEN POPULATION ANALYSIS *
                    ********************************

--------------------------------------------
MULLIKEN ATOMIC CHARGES AND SPIN POPULATIONS
--------------------------------------------
   0 O :   -0.307131    0.974868
   1 C :    0.047177   -0.016682
   2 C :   -0.623756    0.861319
   3 H :    0.200970    0.065604
   4 H :    0.201018    0.065564
   5 H :    0.240869    0.024668
   6 H :    0.240854    0.024660
Sum of atomic charges         :    0.0000000
Sum of atomic spin populations:    2.0000000

-----------------------------------------------------
MULLIKEN REDUCED ORBITAL CHARGES AND SPIN POPULATIONS
-----------------------------------------------------
CHARGE
  0 O s       :     4.011305  s :     4.011305
      pz      :     1.068691  p :     4.275130
      px      :     1.872926
      py      :     1.333513
      dz2     :     0.003243  d :     0.019299
      dxz     :    -0.001314
      dyz     :     0.006568
      dx2y2   :     0.007253
      dxy     :     0.003549
      f0      :     0.000137  f :     0.001396
      f+1     :     0.000040
      f-1     :     0.000152
      f+2     :     0.000228
      f-2     :     0.000014
      f+3     :     0.000368
      f-3     :     0.000456

  1 C s       :     3.170155  s :     3.170155
      pz      :     1.116950  p :     2.624777
      px      :     0.892815
      py      :     0.615012
      dz2     :     0.004389  d :     0.146092
      dxz     :     0.014833
      dyz     :     0.049686
      dx2y2   :     0.016303
      dxy     :     0.060881
      f0      :     0.001091  f :     0.011799
      f+1     :     0.000658
      f-1     :     0.000995
      f+2     :     0.001870
      f-2     :     0.000105
      f+3     :     0.004430
      f-3     :     0.002650

  2 C s       :     3.579810  s :     3.579810
      pz      :     1.136957  p :     3.018498
      px      :     0.917535
      py      :     0.964006
      dz2     :     0.010078  d :     0.021038
      dxz     :    -0.001608
      dyz     :    -0.000996
      dx2y2   :     0.002839
      dxy     :     0.010725
      f0      :     0.000577  f :     0.004409
      f+1     :     0.000616
      f-1     :     0.000110
      f+2     :     0.000840
      f-2     :     0.000088
      f+3     :     0.001200
      f-3     :     0.000978

  3 H s       :     0.758473  s :     0.758473
      pz      :     0.018782  p :     0.037997
      px      :     0.009315
      py      :     0.009900
      dz2     :     0.000747  d :     0.002560
      dxz     :     0.000528
      dyz     :     0.000558
      dx2y2   :     0.000471
      dxy     :     0.000257

  4 H s       :     0.758435  s :     0.758435
      pz      :     0.018778  p :     0.037988
      px      :     0.009308
      py      :     0.009902
      dz2     :     0.000747  d :     0.002560
      dxz     :     0.000528
      dyz     :     0.000557
      dx2y2   :     0.000471
      dxy     :     0.000257

  5 H s       :     0.704268  s :     0.704268
      pz      :     0.012696  p :     0.052614
      px      :     0.011433
      py      :     0.028485
      dz2     :     0.000627  d :     0.002250
      dxz     :     0.000497
      dyz     :     0.000638
      dx2y2   :     0.000229
      dxy     :     0.000258

  6 H s       :     0.704285  s :     0.704285
      pz      :     0.012698  p :     0.052611
      px      :     0.011430
      py      :     0.028483
      dz2     :     0.000627  d :     0.002250
      dxz     :     0.000498
      dyz     :     0.000638
      dx2y2   :     0.000229
      dxy     :     0.000258


SPIN
  0 O s       :     0.009877  s :     0.009877
      pz      :     0.859813  p :     0.968844
      px      :     0.050365
      py      :     0.058666
      dz2     :     0.001013  d :    -0.003686
      dxz     :    -0.000026
      dyz     :    -0.005470
      dx2y2   :     0.000193
      dxy     :     0.000605
      f0      :    -0.000050  f :    -0.000168
      f+1     :     0.000013
      f-1     :    -0.000141
      f+2     :    -0.000008
      f-2     :     0.000000
      f+3     :     0.000003
      f-3     :     0.000016

  1 C s       :    -0.002859  s :    -0.002859
      pz      :     0.005836  p :    -0.082809
      px      :    -0.024312
      py      :    -0.064333
      dz2     :     0.003884  d :     0.065031
      dxz     :     0.005046
      dyz     :     0.050033
      dx2y2   :     0.012575
      dxy     :    -0.006506
      f0      :     0.000700  f :     0.003954
      f+1     :     0.000020
      f-1     :     0.000020
      f+2     :     0.001131
      f-2     :     0.000004
      f+3     :     0.001030
      f-3     :     0.001048

  2 C s       :    -0.000350  s :    -0.000350
      pz      :     0.012325  p :     0.875885
      px      :     0.026728
      py      :     0.836832
      dz2     :     0.000076  d :    -0.013328
      dxz     :    -0.008644
      dyz     :    -0.001061
      dx2y2   :    -0.003407
      dxy     :    -0.000293
      f0      :    -0.000108  f :    -0.000887
      f+1     :    -0.000210
      f-1     :     0.000070
      f+2     :    -0.000202
      f-2     :     0.000012
      f+3     :    -0.000396
      f-3     :    -0.000052

  3 H s       :     0.055013  s :     0.055013
      pz      :     0.004782  p :     0.010583
      px      :     0.001866
      py      :     0.003935
      dz2     :    -0.000009  d :     0.000007
      dxz     :     0.000015
      dyz     :    -0.000001
      dx2y2   :     0.000005
      dxy     :    -0.000004

  4 H s       :     0.054979  s :     0.054979
      pz      :     0.004779  p :     0.010577
      px      :     0.001862
      py      :     0.003936
      dz2     :    -0.000009  d :     0.000007
      dxz     :     0.000015
      dyz     :    -0.000001
      dx2y2   :     0.000005
      dxy     :    -0.000004

  5 H s       :    -0.004108  s :    -0.004108
      pz      :    -0.000256  p :     0.027762
      px      :     0.001459
      py      :     0.026559
      dz2     :     0.000098  d :     0.001015
      dxz     :     0.000050
      dyz     :     0.000605
      dx2y2   :     0.000033
      dxy     :     0.000229

  6 H s       :    -0.004111  s :    -0.004111
      pz      :    -0.000260  p :     0.027756
      px      :     0.001458
      py      :     0.026558
      dz2     :     0.000098  d :     0.001015
      dxz     :     0.000050
      dyz     :     0.000605
      dx2y2   :     0.000033
      dxy     :     0.000228



                     *******************************
                     * LOEWDIN POPULATION ANALYSIS *
                     *******************************

-------------------------------------------
LOEWDIN ATOMIC CHARGES AND SPIN POPULATIONS
-------------------------------------------
   0 O :    0.091215    0.924384
   1 C :   -0.275755    0.194027
   2 C :    0.200077    0.629037
   3 H :    0.042168    0.049476
   4 H :    0.042166    0.049450
   5 H :   -0.049937    0.076819
   6 H :   -0.049934    0.076808

----------------------------------------------------
LOEWDIN REDUCED ORBITAL CHARGES AND SPIN POPULATIONS
----------------------------------------------------
CHARGE
  0 O s       :     3.447683  s :     3.447683
      pz      :     0.999310  p :     4.161531
      px      :     1.696724
      py      :     1.465497
      dz2     :     0.026661  d :     0.294733
      dxz     :     0.009688
      dyz     :     0.081427
      dx2y2   :     0.070306
      dxy     :     0.106651
      f0      :     0.000562  f :     0.004838
      f+1     :     0.000187
      f-1     :     0.000522
      f+2     :     0.000825
      f-2     :     0.000039
      f+3     :     0.001668
      f-3     :     0.001035

  1 C s       :     2.645661  s :     2.645661
      pz      :     0.894011  p :     2.608187
      px      :     0.929176
      py      :     0.784999
      dz2     :     0.103872  d :     0.923484
      dxz     :     0.171537
      dyz     :     0.115620
      dx2y2   :     0.257302
      dxy     :     0.275154
      f0      :     0.007549  f :     0.098423
      f+1     :     0.006590
      f-1     :     0.011550
      f+2     :     0.013069
      f-2     :     0.004363
      f+3     :     0.031896
      f-3     :     0.023406

  2 C s       :     2.720604  s :     2.720604
      pz      :     0.957865  p :     2.600667
      px      :     0.935132
      py      :     0.707670
      dz2     :     0.071530  d :     0.450628
      dxz     :     0.195865
      dyz     :     0.007449
      dx2y2   :     0.095602
      dxy     :     0.080181
      f0      :     0.003566  f :     0.028024
      f+1     :     0.005586
      f-1     :     0.001250
      f+2     :     0.005101
      f-2     :     0.000731
      f+3     :     0.005604
      f-3     :     0.006186

  3 H s       :     0.675584  s :     0.675584
      pz      :     0.109510  p :     0.252895
      px      :     0.081313
      py      :     0.062072
      dz2     :     0.008911  d :     0.029353
      dxz     :     0.007231
      dyz     :     0.006508
      dx2y2   :     0.003749
      dxy     :     0.002953

  4 H s       :     0.675599  s :     0.675599
      pz      :     0.109504  p :     0.252884
      px      :     0.081302
      py      :     0.062078
      dz2     :     0.008909  d :     0.029351
      dxz     :     0.007230
      dyz     :     0.006509
      dx2y2   :     0.003749
      dxy     :     0.002953

  5 H s       :     0.726114  s :     0.726114
      pz      :     0.121750  p :     0.292886
      px      :     0.081761
      py      :     0.089375
      dz2     :     0.009364  d :     0.030937
      dxz     :     0.008942
      dyz     :     0.007289
      dx2y2   :     0.002627
      dxy     :     0.002715

  6 H s       :     0.726104  s :     0.726104
      pz      :     0.121769  p :     0.292893
      px      :     0.081745
      py      :     0.089378
      dz2     :     0.009367  d :     0.030937
      dxz     :     0.008942
      dyz     :     0.007293
      dx2y2   :     0.002624
      dxy     :     0.002711


SPIN
  0 O s       :     0.024102  s :     0.024102
      pz      :     0.762407  p :     0.876912
      px      :     0.068830
      py      :     0.045675
      dz2     :     0.003327  d :     0.023290
      dxz     :     0.000231
      dyz     :     0.010650
      dx2y2   :     0.002646
      dxy     :     0.006436
      f0      :     0.000100  f :     0.000080
      f+1     :     0.000072
      f-1     :    -0.000129
      f+2     :     0.000073
      f-2     :     0.000005
      f+3     :     0.000017
      f-3     :    -0.000058

  1 C s       :    -0.004229  s :    -0.004229
      pz      :     0.005488  p :    -0.009299
      px      :    -0.010045
      py      :    -0.004743
      dz2     :     0.003848  d :     0.177620
      dxz     :     0.012886
      dyz     :     0.110018
      dx2y2   :     0.028732
      dxy     :     0.022135
      f0      :     0.004971  f :     0.029935
      f+1     :     0.000267
      f-1     :     0.000420
      f+2     :     0.008143
      f-2     :     0.000489
      f+3     :     0.008027
      f-3     :     0.007617

  2 C s       :     0.013279  s :     0.013279
      pz      :     0.012360  p :     0.611996
      px      :     0.014207
      py      :     0.585429
      dz2     :    -0.001839  d :     0.004335
      dxz     :    -0.004058
      dyz     :     0.004668
      dx2y2   :     0.003570
      dxy     :     0.001993
      f0      :    -0.000180  f :    -0.000573
      f+1     :    -0.000456
      f-1     :     0.000132
      f+2     :    -0.000032
      f-2     :    -0.000041
      f+3     :    -0.000113
      f-3     :     0.000117

  3 H s       :     0.041541  s :     0.041541
      pz      :     0.001367  p :     0.008502
      px      :     0.000955
      py      :     0.006181
      dz2     :    -0.000150  d :    -0.000567
      dxz     :    -0.000061
      dyz     :    -0.000190
      dx2y2   :    -0.000057
      dxy     :    -0.000109

  4 H s       :     0.041517  s :     0.041517
      pz      :     0.001367  p :     0.008500
      px      :     0.000953
      py      :     0.006180
      dz2     :    -0.000150  d :    -0.000567
      dxz     :    -0.000061
      dyz     :    -0.000190
      dx2y2   :    -0.000057
      dxy     :    -0.000109

  5 H s       :    -0.011851  s :    -0.011851
      pz      :     0.003160  p :     0.078502
      px      :     0.001638
      py      :     0.073705
      dz2     :     0.000453  d :     0.010167
      dxz     :     0.000520
      dyz     :     0.006667
      dx2y2   :     0.000156
      dxy     :     0.002371

  6 H s       :    -0.011850  s :    -0.011850
      pz      :     0.003159  p :     0.078491
      px      :     0.001635
      py      :     0.073697
      dz2     :     0.000454  d :     0.010167
      dxz     :     0.000520
      dyz     :     0.006669
      dx2y2   :     0.000156
      dxy     :     0.002367



                      *****************************
                      * MAYER POPULATION ANALYSIS *
                      *****************************

  NA   - Mulliken gross atomic population
  ZA   - Total nuclear charge
  QA   - Mulliken gross atomic charge
  VA   - Mayer's total valence
  BVA  - Mayer's bonded valence
  FA   - Mayer's free valence

  ATOM       NA         ZA         QA         VA         BVA        FA
  0 O      8.3071     8.0000    -0.3071     1.8550     1.0881     0.7669
  1 C      5.9528     6.0000     0.0472     3.4705     3.4540     0.0165
  2 C      6.6238     6.0000    -0.6238     3.4421     2.7216     0.7205
  3 H      0.7990     1.0000     0.2010     1.0283     1.0258     0.0025
  4 H      0.7990     1.0000     0.2010     1.0282     1.0257     0.0025
  5 H      0.7591     1.0000     0.2409     0.9867     0.9856     0.0011
  6 H      0.7591     1.0000     0.2409     0.9866     0.9856     0.0011

  Mayer bond orders larger than 0.100000
B(  0-O ,  1-C ) :   0.8748 B(  0-O ,  2-C ) :   0.1260 B(  1-C ,  2-C ) :   0.6751 
B(  1-C ,  3-H ) :   0.9815 B(  1-C ,  4-H ) :   0.9815 B(  2-C ,  5-H ) :   0.9897 
B(  2-C ,  6-H ) :   0.9897 

-------
TIMINGS
-------

Total SCF time: 0 days 0 hours 0 min 5 sec 

Total time                  ....       5.590 sec
Sum of individual times     ....       5.579 sec  ( 99.8%)

SCF preparation             ....       0.419 sec  (  7.5%)
Fock matrix formation       ....       4.556 sec  ( 81.5%)
  Startup                   ....       0.029 sec  (  0.6% of F)
  Split-RI-J                ....       0.201 sec  (  4.4% of F)
  Chain of spheres X        ....       2.844 sec  ( 62.4% of F)
  XC integration            ....       1.386 sec  ( 30.4% of F)
    XC Preparation          ....       0.000 sec  (  0.0% of XC)
    Basis function eval.    ....       0.096 sec  (  6.9% of XC)
    Density eval.           ....       0.431 sec  ( 31.1% of XC)
    XC-Functional eval.     ....       0.038 sec  (  2.8% of XC)
    XC-Potential eval.      ....       0.740 sec  ( 53.4% of XC)
Diagonalization             ....       0.000 sec  (  0.0%)
Density matrix formation    ....       0.069 sec  (  1.2%)
Total Energy calculation    ....       0.050 sec  (  0.9%)
Population analysis         ....       0.024 sec  (  0.4%)
Orbital Transformation      ....       0.050 sec  (  0.9%)
Orbital Orthonormalization  ....       0.000 sec  (  0.0%)
DIIS solution               ....       0.287 sec  (  5.1%)
SOSCF solution              ....       0.120 sec  (  2.1%)
Finished LeanSCF after   5.6 sec

Maximum memory used throughout the entire LEANSCF-calculation: 14.7 MB
[1739830266.444592] [ohm:3839799:0]        ib_iface.c:1059 UCX  ERROR ibv_create_cq(cqe=256) failed: Connection timed out
[1739830266.450448] [ohm:3839793:0]        ib_iface.c:1059 UCX  ERROR ibv_create_cq(cqe=256) failed: Connection timed out
[1739830266.463632] [ohm:3839794:0]        ib_iface.c:1059 UCX  ERROR ibv_create_cq(cqe=256) failed: Connection timed out
[1739830266.465085] [ohm:3839795:0]        ib_iface.c:1059 UCX  ERROR ibv_create_cq(cqe=256) failed: Connection timed out
[1739830266.465152] [ohm:3839798:0]        ib_iface.c:1059 UCX  ERROR ibv_create_cq(cqe=256) failed: Connection timed out
[1739830266.466487] [ohm:3839805:0]        ib_iface.c:1059 UCX  ERROR ibv_create_cq(cqe=256) failed: Connection timed out
[1739830266.468288] [ohm:3839796:0]        ib_iface.c:1059 UCX  ERROR ibv_create_cq(cqe=256) failed: Connection timed out
[1739830266.468809] [ohm:3839792:0]        ib_iface.c:1059 UCX  ERROR ibv_create_cq(cqe=256) failed: Connection timed out
[1739830266.469396] [ohm:3839797:0]        ib_iface.c:1059 UCX  ERROR ibv_create_cq(cqe=256) failed: Connection timed out
[1739830266.475398] [ohm:3839802:0]        ib_iface.c:1059 UCX  ERROR ibv_create_cq(cqe=256) failed: Connection timed out
[1739830266.475606] [ohm:3839800:0]        ib_iface.c:1059 UCX  ERROR ibv_create_cq(cqe=256) failed: Connection timed out
[1739830266.478872] [ohm:3839815:0]        ib_iface.c:1059 UCX  ERROR ibv_create_cq(cqe=256) failed: Connection timed out
[1739830266.482696] [ohm:3839808:0]        ib_iface.c:1059 UCX  ERROR ibv_create_cq(cqe=256) failed: Connection timed out
[1739830266.482687] [ohm:3839819:0]        ib_iface.c:1059 UCX  ERROR ibv_create_cq(cqe=256) failed: Connection timed out
[1739830266.482805] [ohm:3839804:0]        ib_iface.c:1059 UCX  ERROR ibv_create_cq(cqe=256) failed: Connection timed out
[1739830266.486942] [ohm:3839822:0]        ib_iface.c:1059 UCX  ERROR ibv_create_cq(cqe=256) failed: Connection timed out


           ************************************************************
           *        Program running with 16 parallel MPI-processes    *
           *              working on a common directory               *
           ************************************************************

------------------------------------------------------------------------------
                         ORCA PROPERTY INTEGRAL CALCULATIONS
------------------------------------------------------------------------------

GBWName                                   ... orca.gbw
Number of atoms                           ...      7
Number of basis functions                 ...    182
Max core memory                           ...   1024 MB

Dipole integrals                          ... YES
Quadrupole integrals                      ...  NO
Linear momentum integrals                 ... YES
Angular momentum integrals                ... YES
Higher moments length integrals           ...  NO
Higher moments velocity integrals         ...  NO
Kinetic energy integrals                  ...  NO
GIAO right hand sides                     ...  NO
GIAO dipole derivative integrals          ...  NO
SOC integrals                             ...  NO
EPR diamagnetic integrals (GIAO)          ...  NO
EPR gauge integrals                       ...  NO
Field gradient integrals                  ...  NO (   0 nuclei)
Spin-dipole/Fermi contact integrals       ...  NO (   0 nuclei)
Contact density integrals                 ...  NO (   0 nuclei)
Nucleus-orbit integrals                   ...  NO (   0 nuclei)
Geometric perturbations                   ...  NO (   7 nuclei)

Choice of electric origin   ... Center of mass
Position of electric origin ... (  0.5561,  0.0965, -0.0001) 
Choice of magnetic origin   ... GIAO
Position of magnetic origin ... (  0.0000,  0.0000,  0.0000) 

Calculating integrals                     ... Electric Dipole (Length)     done (  0.0 sec)
Calculating integrals                     ... Linear Momentum              done (  0.0 sec)
Calculating integrals                     ... Angular Momentum  (ElOri)    done (  0.0 sec)

Property integrals calculated in   0.0 sec

Maximum memory used throughout the entire PROPINT-calculation: 10.4 MB
[1739830267.126200] [ohm:3839892:0]        ib_iface.c:1059 UCX  ERROR ibv_create_cq(cqe=256) failed: Connection timed out
[1739830267.126177] [ohm:3839896:0]        ib_iface.c:1059 UCX  ERROR ibv_create_cq(cqe=256) failed: Connection timed out
[1739830267.126988] [ohm:3839894:0]        ib_iface.c:1059 UCX  ERROR ibv_create_cq(cqe=256) failed: Connection timed out
[1739830267.142499] [ohm:3839891:0]        ib_iface.c:1059 UCX  ERROR ibv_create_cq(cqe=256) failed: Connection timed out
[1739830267.142498] [ohm:3839893:0]        ib_iface.c:1059 UCX  ERROR ibv_create_cq(cqe=256) failed: Connection timed out
[1739830267.142499] [ohm:3839895:0]        ib_iface.c:1059 UCX  ERROR ibv_create_cq(cqe=256) failed: Connection timed out
[1739830267.152209] [ohm:3839897:0]        ib_iface.c:1059 UCX  ERROR ibv_create_cq(cqe=256) failed: Connection timed out
[1739830267.154881] [ohm:3839898:0]        ib_iface.c:1059 UCX  ERROR ibv_create_cq(cqe=256) failed: Connection timed out
[1739830267.156150] [ohm:3839901:0]        ib_iface.c:1059 UCX  ERROR ibv_create_cq(cqe=256) failed: Connection timed out
[1739830267.157846] [ohm:3839904:0]        ib_iface.c:1059 UCX  ERROR ibv_create_cq(cqe=256) failed: Connection timed out
[1739830267.159858] [ohm:3839913:0]        ib_iface.c:1059 UCX  ERROR ibv_create_cq(cqe=256) failed: Connection timed out
[1739830267.162094] [ohm:3839899:0]        ib_iface.c:1059 UCX  ERROR ibv_create_cq(cqe=256) failed: Connection timed out
[1739830267.162095] [ohm:3839903:0]        ib_iface.c:1059 UCX  ERROR ibv_create_cq(cqe=256) failed: Connection timed out
[1739830267.162133] [ohm:3839906:0]        ib_iface.c:1059 UCX  ERROR ibv_create_cq(cqe=256) failed: Connection timed out
[1739830267.179824] [ohm:3839917:0]        ib_iface.c:1059 UCX  ERROR ibv_create_cq(cqe=256) failed: Connection timed out
[1739830267.180983] [ohm:3839920:0]        ib_iface.c:1059 UCX  ERROR ibv_create_cq(cqe=256) failed: Connection timed out


           ************************************************************
           *        Program running with 16 parallel MPI-processes    *
           *              working on a common directory               *
           ************************************************************
------------------------------------------------------------------------------
                        ORCA TD-DFT/TDA CALCULATION
------------------------------------------------------------------------------

Input orbitals are from        ... orca.gbw
CI-vector output               ... orca.cis
Solver                         ... FN-2001
Tamm-Dancoff approximation     ... operative
CIS-Integral strategy          ... AO-integrals
Integral handling              ... AO integral Direct
Max. core memory used          ... 512 MB
Reference state                ... UHF
Follow IRoot                   ... off
Number of operators            ... 2
Orbital ranges used for CIS calculation:
 Operator 0:  Orbitals   3... 12  to  11...181

-------------------
XC-INTEGRATION GRID
-------------------

General Integration Accuracy     IntAcc      ... 3.467
Radial Grid Type                 RadialGrid  ... OptM3 with GC (2021)
Angular Grid (max. ang.)         AngularGrid ... 1 (Lebedev-50)
Angular grid pruning method      GridPruning ... 4 (adaptive)
Weight generation scheme         WeightScheme... mBecke (2022)
Basis function cutoff            BFCut       ... 1.0000e-11
Integration weight cutoff        WCut        ... 1.0000e-14
Partially contracted basis set               ... off
Rotationally invariant grid construction     ... off
Angular grids for H and He will be reduced by one unit
Diffuse basis detected: some atoms will have their outermost
                        angular grid increased by 1.

Total number of grid points                  ...     4731
Total number of batches                      ...       77
Average number of points per batch           ...       61
Average number of grid points per atom       ...      676

---------------------
COSX-INTEGRATION GRID
---------------------

General Integration Accuracy     IntAcc      ... 3.067
Radial Grid Type                 RadialGrid  ... OptM3 with GC (2021)
Angular Grid (max. ang.)         AngularGrid ... 1 (Lebedev-50)
Angular grid pruning method      GridPruning ... 4 (adaptive)
Weight generation scheme         WeightScheme... mBecke (2022)
Basis function cutoff            BFCut       ... 1.0000e-11
Integration weight cutoff        WCut        ... 1.0000e-14
Partially contracted basis set               ... on
Rotationally invariant grid construction     ... off
Angular grids for H and He will be reduced by one unit
Diffuse basis detected: some atoms will have their outermost
                        angular grid increased by 1.

Total number of grid points                  ...     2148
Total number of batches                      ...       22
Average number of points per batch           ...       97
Average number of grid points per atom       ...      307

---------------
TD-DFT XC SETUP
---------------

DFT calculation                         ... on
Name of the grid file                   ... orca.grid_cis.tmp
RI-approximation                        ... on
Aux-basis dimension                     ... 0
Functional (TD-DFT)
  Functional kind                       .... Exchange-Correlation
  Functional name                       .... wB97M-V exchange-correlation functional
  Functional family                     .... Hybrid MGGA
  Functional refs                              
    [ 0] N. Mardirossian and M. Head-Gordon.,  J. Chem. Phys. 144, 214110 (2016), doi: 10.1063/1.4952647
  Fraction of HF Exchange (short range) .... 0.1500
  Fraction of HF Exchange (long range)  .... 1.0000
  Range separation parameter mu         .... 0.3000
  Functional external parameters        .... 17
    Parameter  0 _cx00      =  8.500000e-01 : u^00 coefficient for exchange
    Parameter  1 _cx01      =  1.007000e+00 : u^01 coefficient for exchange
    Parameter  2 _cx10      =  2.590000e-01 : u^10 coefficient for exchange
    Parameter  3 _css00     =  4.430000e-01 : u^00 coefficient for same-spin correlation
    Parameter  4 _css04     = -1.437000e+00 : u^04 coefficient for same-spin correlation
    Parameter  5 _css10     = -4.535000e+00 : u^10 coefficient for same-spin correlation
    Parameter  6 _css20     = -3.390000e+00 : u^20 coefficient for same-spin correlation
    Parameter  7 _css43     =  4.278000e+00 : u^43 coefficient for same-spin correlation
    Parameter  8 _cos00     =  1.000000e+00 : u^00 coefficient for opposite-spin correlation
    Parameter  9 _cos10     =  1.358000e+00 : u^10 coefficient for opposite-spin correlation
    Parameter 10 _cos20     =  2.924000e+00 : u^20 coefficient for opposite-spin correlation
    Parameter 11 _cos21     = -8.812000e+00 : u^21 coefficient for opposite-spin correlation
    Parameter 12 _cos60     = -1.390000e+00 : u^60 coefficient for opposite-spin correlation
    Parameter 13 _cos61     =  9.142000e+00 : u^61 coefficient for opposite-spin correlation
    Parameter 14 _alpha     =  1.000000e+00 : fraction of HF exchange
    Parameter 15 _beta      = -8.500000e-01 : fraction of short-range exchange
    Parameter 16 _omega     =  3.000000e-01 : range-separation constant
Hybrid DFT                              ... on
   Exchange mixing (TD-DFT)             ...  0.150
   GGA exch. scaling (TD-DFT)           ...  0.000
   GGA corr. scaling (TD-DFT)           ...  1.000
Range-Separated Exchange                ... on
   Range Range separation parameter mu  .... 0.300
   Max. amount of RS exchange (TD-DFT)  ...  0.850

Building densities             ... done
Calculating rho(r) on the grid ... done
Building xc-kernel on the grid ... done
                    *** TD-DFT CALCULATION INITIALIZED ***

------------------------
DAVIDSON-DIAGONALIZATION
------------------------

Dimension of the eigenvalue problem            ...   1710
Number of roots to be determined               ...      2
Maximum size of the expansion space            ...     20
Maximum number of iterations                   ...    100
Convergence tolerance for the residual         ...    2.500e-07
Convergence tolerance for the energies         ...    2.500e-07
Orthogonality tolerance                        ...    1.000e-14
Level Shift                                    ...    0.000e+00
Constructing the preconditioner                ... o.k.
Building the initial guess                     ... o.k.
Number of trial vectors determined             ...     20


                       ****Iteration    0****
   Time for iteration     :  TOTAL=0.2 TRAFO=0.0 COSX=0.2
   Size of expansion space: 6
   Lowest Energy          :    -0.005729790744
   Maximum Energy change  :     0.059343699468 (vector 1)
   Maximum residual norm  :     0.004761748767

                       ****Iteration    1****
   Time for iteration     :  TOTAL=0.1 TRAFO=0.0 RIJ=0.0 COSX=0.1
   Size of expansion space: 8
   Lowest Energy          :    -0.014328989876
   Maximum Energy change  :     0.020421776922 (vector 1)
   Maximum residual norm  :     0.000342857867

                       ****Iteration    2****
   Time for iteration     :  TOTAL=0.1 TRAFO=0.0 COSX=0.1
   Size of expansion space: 10
   Lowest Energy          :    -0.014687408082
   Maximum Energy change  :     0.000840688698 (vector 1)
   Maximum residual norm  :     0.000015055984

                       ****Iteration    3****
   Time for iteration     :  TOTAL=0.1 TRAFO=0.0 RIJ=0.0 COSX=0.1
   Size of expansion space: 12
   Lowest Energy          :    -0.014694766683
   Maximum Energy change  :     0.000030857844 (vector 1)
   Maximum residual norm  :     0.000001322610

                       ****Iteration    4****
   Time for iteration     :  TOTAL=0.1 TRAFO=0.0 COSX=0.1
   Size of expansion space: 14
   Lowest Energy          :    -0.014694879970
   Maximum Energy change  :     0.000001949392 (vector 1)
   Maximum residual norm  :     0.000000086830

      *** CONVERGENCE OF RESIDUAL NORM REACHED ***

Storing the converged CI vectors               ... orca.cis3

                 *** DAVIDSON DONE ***

Total time for solving the CIS problem:     0.769sec

---------------------
SF-TDA EXCITED STATES
---------------------

the weight of the individual excitations are printed if larger than 1.0e-02

UHF/UKS reference: multiplicity estimated based on rounded <S**2> value, RELEVANCE IS LIMITED!

(SPIN-FLIP GROUND STATE)
STATE  1:  E=  -0.014695 au     -0.400 eV    -3225.2 cm**-1 <S**2> =   0.265721 Mult 1
     7a ->  11b  :     0.014802 (c=  0.12166391)
    11a ->  11b  :     0.149804 (c=  0.38704533)
    12a ->  11b  :     0.821082 (c=  0.90613577)

STATE  2:  E=   0.038048 au      1.035 eV     8350.7 cm**-1 <S**2> =   1.054101 Mult 3
    12a ->  12b  :     0.890093 (c= -0.94344737)
    12a ->  14b  :     0.011719 (c= -0.10825567)
    12a ->  16b  :     0.036994 (c=  0.19233706)
    12a ->  18b  :     0.016635 (c=  0.12897561)
    12a ->  21b  :     0.020890 (c= -0.14453289)


-----------------------------
TD-DFT/TDA-EXCITATION SPECTRA
-----------------------------

Center of mass = (  0.5561,  0.0965, -0.0001)
Generating CIS-Spin-flip transition densities           ... done

UHF/UKS reference: multiplicity estimated based on rounded <S**2> value, use it judiciously!

----------------------------------------------------------------------------------------------------
          SPIN FLIP ABSORPTION SPECTRUM VIA TRANSITION ELECTRIC DIPOLE MOMENTS    
----------------------------------------------------------------------------------------------------
     Transition      Energy     Energy  Wavelength fosc(D2)      D2        DX        DY        DZ   
                      (eV)      (cm-1)    (nm)                 (au**2)    (au)      (au)      (au)  
----------------------------------------------------------------------------------------------------
  1-3A  ->  2-3A    1.435218   11575.8   863.9   0.000292906   0.00833  -0.00004  -0.00005  -0.09127

----------------------------------------------------------------------------------------------------
          SPIN FLIP ABSORPTION SPECTRUM VIA TRANSITION VELOCITY DIPOLE MOMENTS    
----------------------------------------------------------------------------------------------------
     Transition      Energy     Energy  Wavelength fosc(P2)      P2        PX        PY        PZ   
                      (eV)      (cm-1)    (nm)                 (au**2)    (au)      (au)      (au)  
----------------------------------------------------------------------------------------------------
  1-3A  ->  2-3A    1.435218   11575.8   863.9   0.000353472   0.00003  -0.00000  -0.00001  -0.00529

------------------------------------------------------------------------------------------
          SPIN FLIP CD SPECTRUM VIA TRANSITION ELECTRIC DIPOLE MOMENTS    
------------------------------------------------------------------------------------------
     Transition      Energy     Energy  Wavelength    R        MX        MY        MZ   
                      (eV)      (cm-1)    (nm)   (1e40*cgs)   (au)      (au)      (au)  
------------------------------------------------------------------------------------------
  1-3A  ->  2-3A    1.435218   11575.8   863.9    0.00056  -0.04705  -0.01152   0.00004

[...]
      f+2     :    -0.000017
      f-2     :     0.000091
      f+3     :    -0.006991
      f-3     :     0.003458
  2 C s       :     0.001446  s :     0.001446
      pz      :     0.004722  p :     0.246880
      px      :    -0.003918
      py      :     0.246075
      dz2     :    -0.002462  d :    -0.009058
      dxz     :     0.000039
      dyz     :    -0.003673
      dx2y2   :    -0.002687
      dxy     :    -0.000275
      f0      :    -0.000033  f :    -0.000397
      f+1     :    -0.000212
      f-1     :     0.000152
      f+2     :    -0.000085
      f-2     :    -0.000051
      f+3     :    -0.000391
      f-3     :     0.000221
  3 H s       :     0.009142  s :     0.009142
      pz      :     0.000068  p :    -0.002108
      px      :     0.000231
      py      :    -0.002407
      dz2     :    -0.000045  d :    -0.000111
      dxz     :     0.000004
      dyz     :    -0.000009
      dx2y2   :    -0.000054
      dxy     :    -0.000008
  4 H s       :     0.009132  s :     0.009132
      pz      :     0.000069  p :    -0.002110
      px      :     0.000231
      py      :    -0.002409
      dz2     :    -0.000045  d :    -0.000111
      dxz     :     0.000004
      dyz     :    -0.000009
      dx2y2   :    -0.000054
      dxy     :    -0.000008
  5 H s       :    -0.005351  s :    -0.005351
      pz      :     0.001625  p :     0.026603
      px      :     0.000194
      py      :     0.024785
      dz2     :     0.000279  d :     0.004366
      dxz     :     0.000152
      dyz     :     0.002874
      dx2y2   :    -0.000052
      dxy     :     0.001113
  6 H s       :    -0.005352  s :    -0.005352
      pz      :     0.001625  p :     0.026606
      px      :     0.000193
      py      :     0.024788
      dz2     :     0.000280  d :     0.004366
      dxz     :     0.000152
      dyz     :     0.002874
      dx2y2   :    -0.000052
      dxy     :     0.001112


                      *****************************
                      * MAYER POPULATION ANALYSIS *
                      *****************************

  NA   - Mulliken gross atomic population
  ZA   - Total nuclear charge
  QA   - Mulliken gross atomic charge
  VA   - Mayer's total valence
  BVA  - Mayer's bonded valence
  FA   - Mayer's free valence

  ATOM       NA         ZA         QA         VA         BVA        FA
  0 O      8.5341     8.0000    -0.5341     1.5424     1.5762    -0.0338
  1 C      6.1286     6.0000    -0.1286     3.6296     3.5553     0.0743
  2 C      6.2882     6.0000    -0.2882     3.4088     3.3540     0.0548
  3 H      0.7671     1.0000     0.2329     1.1024     1.0951     0.0073
  4 H      0.7671     1.0000     0.2329     1.1023     1.0950     0.0073
  5 H      0.7575     1.0000     0.2425     0.9185     0.9144     0.0041
  6 H      0.7575     1.0000     0.2425     0.9185     0.9144     0.0041

  Mayer bond orders larger than 0.100000
B(  0-O ,  1-C ) :   0.7725 B(  0-O ,  2-C ) :   0.7766 B(  1-C ,  2-C ) :   0.7712 
B(  1-C ,  3-H ) :   1.0206 B(  1-C ,  4-H ) :   1.0205 B(  2-C ,  5-H ) :   0.9420 
B(  2-C ,  6-H ) :   0.9420 


-------
TIMINGS
-------

Total TD-DFT gradient time  ....        5.168 sec

Fock matrix formation       ....       1.184 sec  ( 22.9%)
  Coulomb formation         ....       0.905 sec  ( 76.4% of F)
  XC integration            ....       0.279 sec  ( 23.6% of F)
Z-vector equation           ....       1.467 sec  ( 28.4%)
Densities                   ....       0.000 sec  (  0.0%)
One electron gradient       ....       0.009 sec  (  0.2%)
Two electron gradient       ....       0.000 sec  (  0.0%)
RI-J Coulomb gradient       ....       0.091 sec  (  1.8%)
COSX gradient               ....       0.407 sec  (  7.9%)
XC gradient                 ....       1.801 sec  ( 34.8%)

Maximum memory used throughout the entire CIS-calculation: 35.8 MB
=> NOW LEAVING ORCA_CIS


-------------------------------------------------------------------------------
                          DFT DISPERSION CORRECTION                            
                                                                               
                              DFTD3 V3.1  Rev 1                                
                          USING Becke-Johnson damping                          
-------------------------------------------------------------------------------
The WB97M functional is recognized
Active option DFTDOPT                   ...         4   

molecular C6(AA) [au] = 393.395531 


            DFT-D V3
 parameters
 s6 scaling factor         :     1.0000 
 a1 scaling factor         :     0.5660 
 s8 scaling factor         :     0.3908 
 a2 scaling factor         :     3.1280 
 ad hoc parameters k1-k3   :    16.0000     1.3333    -4.0000 

 Edisp/kcal,au: -3.554258276728  -0.005664070495 
 E6   /kcal   :  -2.862563009 
 E8   /kcal   :  -0.691695268 
 % E8         :  19.461029957 

-------------------------   ----------------
Dispersion correction           -0.005664070
-------------------------   ----------------


-------------------------   --------------------
FINAL SINGLE POINT ENERGY      -153.788419720293
-------------------------   --------------------

[1739830273.866261] [ohm:3840004:0]        ib_iface.c:1059 UCX  ERROR ibv_create_cq(cqe=256) failed: Connection timed out
[1739830273.866267] [ohm:3840006:0]        ib_iface.c:1059 UCX  ERROR ibv_create_cq(cqe=256) failed: Connection timed out
[1739830273.871119] [ohm:3840010:0]        ib_iface.c:1059 UCX  ERROR ibv_create_cq(cqe=256) failed: Connection timed out
[1739830273.871399] [ohm:3840008:0]        ib_iface.c:1059 UCX  ERROR ibv_create_cq(cqe=256) failed: Connection timed out
[1739830273.871933] [ohm:3840007:0]        ib_iface.c:1059 UCX  ERROR ibv_create_cq(cqe=256) failed: Connection timed out
[1739830273.878590] [ohm:3840013:0]        ib_iface.c:1059 UCX  ERROR ibv_create_cq(cqe=256) failed: Connection timed out
[1739830273.879269] [ohm:3840005:0]        ib_iface.c:1059 UCX  ERROR ibv_create_cq(cqe=256) failed: Connection timed out
[1739830273.879366] [ohm:3840009:0]        ib_iface.c:1059 UCX  ERROR ibv_create_cq(cqe=256) failed: Connection timed out
[1739830273.879362] [ohm:3840003:0]        ib_iface.c:1059 UCX  ERROR ibv_create_cq(cqe=256) failed: Connection timed out
[1739830273.879579] [ohm:3840011:0]        ib_iface.c:1059 UCX  ERROR ibv_create_cq(cqe=256) failed: Connection timed out
[1739830273.884808] [ohm:3840015:0]        ib_iface.c:1059 UCX  ERROR ibv_create_cq(cqe=256) failed: Connection timed out
[1739830273.898002] [ohm:3840029:0]        ib_iface.c:1059 UCX  ERROR ibv_create_cq(cqe=256) failed: Connection timed out
[1739830273.899162] [ohm:3840018:0]        ib_iface.c:1059 UCX  ERROR ibv_create_cq(cqe=256) failed: Connection timed out
[1739830273.899796] [ohm:3840024:0]        ib_iface.c:1059 UCX  ERROR ibv_create_cq(cqe=256) failed: Connection timed out
[1739830273.899886] [ohm:3840031:0]        ib_iface.c:1059 UCX  ERROR ibv_create_cq(cqe=256) failed: Connection timed out
[1739830273.900171] [ohm:3840016:0]        ib_iface.c:1059 UCX  ERROR ibv_create_cq(cqe=256) failed: Connection timed out


           ************************************************************
           *        Program running with 16 parallel MPI-processes    *
           *              working on a common directory               *
           ************************************************************

------------------------------------------------------------------------------
                              ORCA PROPERTY CALCULATIONS
------------------------------------------------------------------------------

GBWName                                 ... orca.gbw
Number of atoms                         ...      7
Number of basis functions               ...    182
Max core memory                         ...   1024 MB

Electric properties:
Dipole moment                           ... YES
Quadrupole moment                       ...  NO
Static polarizability (Dipole/Dipole)   ...  NO
Static polarizability (Dipole/Quad.)    ...  NO
Static polarizability (Quad./Quad.)     ...  NO
Static polarizability (Velocity)        ...  NO

Atomic electric properties:
Dipole moment                           ...  NO
Quadrupole moment                       ...  NO
Static polarizability                   ...  NO

Choice of electric origin               ... Center of mass
Position of electric origin             ...     0.556150     0.096487    -0.000138

General magnetic properties:
Magnetizability                         ...  NO

EPR properties:
g-Tensor (aka g-matrix)                 ...  NO
Zero-Field splitting spin-orbit         ...  NO
Zero-field splitting spin-spin          ...  NO
Hyperfine couplings                     ...  NO (   0 nuclei)
Quadrupole couplings                    ...  NO (   0 nuclei)
Contact density                         ...  NO (   0 nuclei)

NMR properties:
Chemical shifts                         ...  NO (   0 nuclei)
Spin-rotation constants                 ...  NO (   0 nuclei)
Spin-spin couplings                     ...  NO (   0 nuclei,    0 pairs)

Choice of magnetic origin               ... GIAO
Position of magnetic origin             ...     0.000000     0.000000     0.000000

Properties with geometric perturbations:
SCF Hessian                             ...  NO
IR spectrum                             ...  NO
VCD spectrum                            ...  NO
X-ray spectroscopy properties:
SCF XES/XAS/RIXS spectra                ...  NO


-------------
DIPOLE MOMENT
-------------

Method             : SCF
Type of density    : Electron Density
Multiplicity       :   3
Irrep              :   0
Energy             :  -153.7680607698279402 Eh
Relativity type    : 
Basis              : AO
                                X                 Y                 Z
Electronic contribution:      1.162792941       2.048455287      -0.000443736
Nuclear contribution   :     -0.982638468      -2.609214205       0.000476868
                        -----------------------------------------
Total Dipole Moment    :      0.180154473      -0.560758918       0.000033132
                        -----------------------------------------
Magnitude (a.u.)       :      0.588987436
Magnitude (Debye)      :      1.497087087



--------------------
Rotational spectrum 
--------------------
 
Rotational constants in cm-1:             1.159525             0.445236             0.367949 
Rotational constants in MHz :         34761.680118         13347.835242         11030.818594 

Dipole components along the rotational axes: 
x,y,z [a.u.] :    -0.277689     0.519418     0.000027 
x,y,z [Debye]:    -0.705829     1.320256     0.000069 

 

-------------
DIPOLE MOMENT
-------------

Method             : TDA/CIS
Type of density    : Electron Density
Level              : Relaxed density
State              :   1
Multiplicity       :   3
Irrep              :   0
Energy             :     0.0000000000000000 Eh
Relativity type    : 
Basis              : AO
                                X                 Y                 Z
Electronic contribution:      0.214046779       1.229240191      -0.000246502
Nuclear contribution   :     -0.982638468      -2.609214205       0.000476868
                        -----------------------------------------
Total Dipole Moment    :     -0.768591689      -1.379974015       0.000230367
                        -----------------------------------------
Magnitude (a.u.)       :      1.579576373
Magnitude (Debye)      :      4.014964066



--------------------
Rotational spectrum 
--------------------
 
Rotational constants in cm-1:             1.159525             0.445236             0.367949 
Rotational constants in MHz :         34761.680118         13347.835242         11030.818594 

Dipole components along the rotational axes: 
x,y,z [a.u.] :    -1.526155     0.407324     0.000051 
x,y,z [Debye]:    -3.879177     1.035336     0.000130 

 

Dipole moment calculation done in   0.0 sec 

Maximum memory used throughout the entire PROP-calculation: 7.6 MB
[1739830274.554631] [ohm:3840096:0]        ib_iface.c:1059 UCX  ERROR ibv_create_cq(cqe=256) failed: Connection timed out
[1739830274.554637] [ohm:3840102:0]        ib_iface.c:1059 UCX  ERROR ibv_create_cq(cqe=256) failed: Connection timed out
[1739830274.554627] [ohm:3840105:0]        ib_iface.c:1059 UCX  ERROR ibv_create_cq(cqe=256) failed: Connection timed out
[1739830274.563646] [ohm:3840098:0]        ib_iface.c:1059 UCX  ERROR ibv_create_cq(cqe=256) failed: Connection timed out
[1739830274.563641] [ohm:3840100:0]        ib_iface.c:1059 UCX  ERROR ibv_create_cq(cqe=256) failed: Connection timed out
[1739830274.564363] [ohm:3840108:0]        ib_iface.c:1059 UCX  ERROR ibv_create_cq(cqe=256) failed: Connection timed out
[1739830274.564410] [ohm:3840097:0]        ib_iface.c:1059 UCX  ERROR ibv_create_cq(cqe=256) failed: Connection timed out
[1739830274.564451] [ohm:3840099:0]        ib_iface.c:1059 UCX  ERROR ibv_create_cq(cqe=256) failed: Connection timed out
[1739830274.564449] [ohm:3840103:0]        ib_iface.c:1059 UCX  ERROR ibv_create_cq(cqe=256) failed: Connection timed out
[1739830274.565269] [ohm:3840101:0]        ib_iface.c:1059 UCX  ERROR ibv_create_cq(cqe=256) failed: Connection timed out
[1739830274.565346] [ohm:3840095:0]        ib_iface.c:1059 UCX  ERROR ibv_create_cq(cqe=256) failed: Connection timed out
[1739830274.586636] [ohm:3840117:0]        ib_iface.c:1059 UCX  ERROR ibv_create_cq(cqe=256) failed: Connection timed out
[1739830274.587342] [ohm:3840107:0]        ib_iface.c:1059 UCX  ERROR ibv_create_cq(cqe=256) failed: Connection timed out
[1739830274.587345] [ohm:3840110:0]        ib_iface.c:1059 UCX  ERROR ibv_create_cq(cqe=256) failed: Connection timed out
[1739830274.591989] [ohm:3840121:0]        ib_iface.c:1059 UCX  ERROR ibv_create_cq(cqe=256) failed: Connection timed out
[1739830274.593432] [ohm:3840128:0]        ib_iface.c:1059 UCX  ERROR ibv_create_cq(cqe=256) failed: Connection timed out

--------------------------------
SUGGESTED CITATIONS FOR THIS RUN
--------------------------------

Below you find a list of papers that are relevant to this ORCA run
We neither can nor want to force you to cite these papers, but we appreciate if you do
You receive ORCA, which is the product of decades of hard work by many enthusiastic individuals, for free
The only thing we kindly ask in return is that you cite our papers,
We deeply appreciate it, if you show your appreciation for ORCA by not just citing the generic ORCA reference.

Please note that relegating all ORCA citations to the supporting information does *not* help us.
SI sections are not indexed - citations you put there will not count into any citation statistics
But we need these citations in order to attract the funding resources that allow us to do what we are doing

Therefore, if you are a happy ORCA user, please consider citing a few of the papers listed below in the main body of your paper

In addition to the list printed below, the program has created the file orca.bibtex that contains the list in bibtex format
You can import this file easily into all common literature databanks and citation aid programs


List of essential papers. We consider these as the minimum necessary citations

  1. Neese,F.
     Software update: the ORCA program system, version 5.0
     WIRES Comput. Molec. Sci., 2022 12(1)e1606
     doi.org/10.1002/wcms.1606

List of papers to cite with high priority. The work reported in these papers was absolutely
necessary for this run to complete.
Our perspective: the developers of density functionals and basis sets usually get cited in chemistry papers
Good! But without the algorithms to do something with them, the functionals or basis sets would not do anything.
Hence, in our opinion, the algorithm design and method developments papers are equally worthy of getting cited

  1. Neese,F.; Olbrich,G.
     Efficient use of the resolution of the identity approximation in time-dependent density functional calculations with hybrid density functionals
     Chem. Phys. Lett., 2002 362 170-178
     doi.org/10.1016/s0009-2614(02)01053-9
  2. Neese,F.
     An improvement of the resolution of the identity approximation for the formation of the Coulomb matrix
     J. Comp. Chem., 2003 24(14)1740-1747
     doi.org/10.1002/jcc.10318
  3. Neese,F.; Wennmohs,F.; Hansen,A.; Becker,U.
     Efficient, approximate and parallel Hartree-Fock and hybrid DFT calculations. A 'chain-of-spheres' algorithm for the Hartree-Fock exchange
     Chem. Phys., 2009 356(1-3)98-109
     doi.org/10.1016/j.chemphys.2008.10.036
  4. Petrenko,T.; Kossmann,S.; Neese,F.
     Efficient time-dependent density functional theory approximations for hybrid density functionals: Analytical gradients and parallelization
     J. Chem. Phys., 2011 134 054116
     doi.org/10.1063/1.3533441
  5. Helmich-Paris,B.; de Souza,B.; Neese,F.; Izsák,R.
     An improved chain of spheres for exchange algorithm
     J. Chem. Phys., 2021 155 104109
     doi.org/doi: 10.1063/5.0058766.
  6. Neese,F.
     The SHARK Integral Generation and Digestion System
     J. Comp. Chem., 2022  1-16
     doi.org/10.1002/jcc.26942
  7. Lehtola,S.; Steigemann,C.; Oliveira,M.; Marques,M.
     Recent developments in Libxc - A comprehensive library of functionals for density functional theory
     Software X, 2018 7 
     doi.org/10.1016/j.softx.2017.11.002
  8. Grimme,S.; Antony,J.; Ehrlich,S.; Krieg,H.
     A consistent and accurate ab initio parametrization of density functional dispersion correction (DFT-D) for the 94 elements H-Pu
     J. Chem. Phys., 2010 132 154104-XXXX
     doi.org/10.1063/1.3382344
  9. Grimme,S.; Ehrlich,S.; Goerigk,L.
     Effect of the damping function in dispersion corrected density functional theory
     J. Comput. Chem., 2011 32(7)1456-1465
     doi.org/10.1002/jcc.21759

List of suggested additional citations. These are papers that are important in the 'surrounding' of 
of this run, or papers that preceded the highly important papers. If you like your results we are grateful for a citation.

  1. Izsak,R.; Neese,F.
     An overlap fitted chain of spheres exchange method
     J. Chem. Phys., 2011 135 144105
     doi.org/10.1063/1.3646921
  2. Izsak,R.; Hansen,A.; Neese,F.
     The resolution of identity and chain of spheres approximations for the LPNO-CCSD singles Fock term
     Molec. Phys., 2012 110 2413-2417
     doi.org/10.1080/00268976.2012.687466
  3. Neese,F.
     The ORCA program system
     WIRES Comput. Molec. Sci., 2012 2(1)73-78
     doi.org/10.1002/wcms.81
  4. Izsak,R.; Neese,F.; Klopper,W.
     Robust fitting techniques in the chain of spheres approximation to the Fock exchange: The role of the complementary space
     J. Chem. Phys., 2013 139 
     doi.org/10.1063/1.4819264
  5. Neese,F.
     Software update: the ORCA program system, version 4.0
     WIRES Comput. Molec. Sci., 2018 8(1)1-6
     doi.org/10.1002/wcms.1327
  6. Neese,F.; Wennmohs,F.; Becker,U.; Riplinger,C.
     The ORCA quantum chemistry program package
     J. Chem. Phys., 2020 152 Art. No. L224108
     doi.org/10.1063/5.0004608

List of optional additional citations

  1. Neese,F.
     Approximate second-order SCF convergence for spin unrestricted wavefunctions
     Chem. Phys. Lett., 2000 325(1-3)93-98
     doi.org/10.1016/s0009-2614(00)00662-x

Timings for individual modules:

Sum of individual times          ...       15.789 sec (=   0.263 min)
Startup calculation              ...        1.008 sec (=   0.017 min)   6.4 %
SCF iterations                   ...        6.713 sec (=   0.112 min)  42.5 %
Property integrals               ...        0.697 sec (=   0.012 min)   4.4 %
Property calculations            ...        0.673 sec (=   0.011 min)   4.3 %
CIS module                       ...        6.698 sec (=   0.112 min)  42.4 %
                             ****ORCA TERMINATED NORMALLY****
TOTAL RUN TIME: 0 days 0 hours 0 minutes 16 seconds 532 msec
