
                                 *****************
                                 * O   R   C   A *
                                 *****************

                                            #,                                       
                                            ###                                      
                                            ####                                     
                                            #####                                    
                                            ######                                   
                                           ########,                                 
                                     ,,################,,,,,                         
                               ,,#################################,,                 
                          ,,##########################################,,             
                       ,#########################################, ''#####,          
                    ,#############################################,,   '####,        
                  ,##################################################,,,,####,       
                ,###########''''           ''''###############################       
              ,#####''   ,,,,##########,,,,          '''####'''          '####       
            ,##' ,,,,###########################,,,                        '##       
           ' ,,###''''                  '''############,,,                           
         ,,##''                                '''############,,,,        ,,,,,,###''
      ,#''                                            '''#######################'''  
     '                                                          ''''####''''         
             ,#######,   #######,   ,#######,      ##                                
            ,#'     '#,  ##    ##  ,#'     '#,    #''#        ,####,   ,####,        
            ##       ##  ##   ,#'  ##            #'  '#       #'       #'  '#        
            ##       ##  #######   ##           ,######,      #####,   #    #        
            '#,     ,#'  ##    ##  '#,     ,#' ,#      #,     #,   #   #,  ,#        
             '#######'   ##     ##  '#######'  #'      '#     '####' # '####'        



                #########################################################
                #                        -***-                          #
                #          Department of theory and spectroscopy        #
                #                                                       #
                #                      Frank Neese                      #
                #                                                       #
                #     Directorship, Architecture, Infrastructure        #
                #                    SHARK, DRIVERS                     #
                #        Core code/Algorithms in most modules           #
                #                                                       #
                #        Max Planck Institute fuer Kohlenforschung      #
                #                Kaiser Wilhelm Platz 1                 #
                #                 D-45470 Muelheim/Ruhr                 #
                #                      Germany                          #
                #                                                       #
                #                  All rights reserved                  #
                #                        -***-                          #
                #########################################################


                         Program Version 6.0.0  -   RELEASE  -


 With contributions from (in alphabetic order):
   Daniel Aravena         : Magnetic Suceptibility
   Michael Atanasov       : Ab Initio Ligand Field Theory (pilot matlab implementation)
   Alexander A. Auer      : GIAO ZORA, VPT2 properties, NMR spectrum
   Ute Becker             : All parallelization in ORCA, NUMFREQ, NUMCALC
   Giovanni Bistoni       : ED, misc. LED, open-shell LED, HFLD
   Martin Brehm           : Molecular dynamics
   Dmytro Bykov           : pre 5.0 version of the SCF Hessian
   Marcos Casanova-Páez   : Triplet and SCS-CIS(D). UHF-(DLPNO)-IP/EA/STEOM-CCSD. UHF-CVS-IP/STEOM-CCSD
   Vijay G. Chilkuri      : MRCI spin determinant printing, contributions to CSF-ICE
   Pauline Colinet        : FMM embedding
   Dipayan Datta          : RHF DLPNO-CCSD density
   Achintya Kumar Dutta   : EOM-CC, STEOM-CC
   Nicolas Foglia         : Exact transition moments, OPA infrastructure, MCD improvements
   Dmitry Ganyushin       : Spin-Orbit,Spin-Spin,Magnetic field MRCI
   Miquel Garcia          : C-PCM and meta-GGA Hessian, CCSD/C-PCM, Gaussian charge scheme
   Tiago L. C. Gouveia    : GS-ROHF, GS-ROCIS
   Yang Guo               : DLPNO-NEVPT2, F12-NEVPT2, CIM, IAO-localization
   Andreas Hansen         : Spin unrestricted coupled pair/coupled cluster methods
   Ingolf Harden          : AUTO-CI MPn and infrastructure 
   Benjamin Helmich-Paris : MC-RPA, TRAH-(SCF,CASSCF), AVAS, COSX integrals, SCF dyn. polar.
   Lee Huntington         : MR-EOM, pCC
   Robert Izsak           : Overlap fitted RIJCOSX, COSX-SCS-MP3, EOM
   Riya Kayal             : Wick's Theorem for AUTO-CI, AUTO-CI UHF-CCSDT
   Emily Kempfer          : AUTO-CI, RHF CISDT and CCSDT
   Christian Kollmar      : KDIIS, OOCD, Brueckner-CCSD(T), CCSD density, CASPT2, CASPT2-K, improved NEVPT2
   Axel Koslowski         : Symmetry handling
   Simone Kossmann        : Meta GGA functionals, TD-DFT gradient, OOMP2, (MP2 Hessian; deprecated post 5.0)
   Lucas Lang             : DCDCAS
   Marvin Lechner         : AUTO-CI (C++ implementation), FIC-MRCC
   Spencer Leger          : CASSCF response
   Dagmar Lenk            : GEPOL surface, SMD, ORCA-2-JSON
   Dimitrios Liakos       : Extrapolation schemes; Compound Job, initial MDCI parallelization
   Dimitrios Manganas     : Further ROCIS development; embedding schemes. LFT, Crystal Embedding
   Dimitrios Pantazis     : SARC Basis sets
   Anastasios Papadopoulos: AUTO-CI, single reference methods and gradients
   Taras Petrenko         : pre 6.0 DFT Hessian and TD-DFT gradient, (ASA, deprecated), ECA, 1-Electron XAS/XES, NRVS
   Peter Pinski           : DLPNO-MP2, DLPNO-MP2 Gradient
   Christoph Reimann      : Effective Core Potentials
   Marius Retegan         : Local ZFS, SOC
   Christoph Riplinger    : Optimizer, TS searches, QM/MM, DLPNO-CCSD(T), (RO)-DLPNO pert. Triples
   Michael Roemelt        : Original ROCIS implementation
   Masaaki Saitow         : Open-shell DLPNO-CCSD energy and density
   Barbara Sandhoefer     : DKH picture change effects
   Kantharuban Sivalingam : CASSCF convergence/infrastructure, NEVPT2 and variants, FIC-MRCI
   Bernardo de Souza      : ESD, SOC TD-DFT
   Georgi Stoychev        : AutoAux, RI-MP2 NMR, DLPNO-MP2 response, X2C
   Van Anh Tran           : RI-MP2 g-tensors
   Willem Van den Heuvel  : Paramagnetic NMR
   Zikuan Wang            : NOTCH, Electric field optimization 
   Frank Wennmohs         : Technical directorship and infrastructure
   Hang Xu                : AUTO-CI-Response properties 


 We gratefully acknowledge several colleagues who have allowed us to
 interface, adapt or use parts of their codes:
   Stefan Grimme, W. Hujo, H. Kruse, P. Pracht,  : VdW corrections, initial TS optimization,
                  C. Bannwarth, S. Ehlert,         DFT functionals, gCP, sTDA/sTD-DF
                  L. Wittmann, M. Mueller
   Ed Valeev, F. Pavosevic, A. Kumar             : LibInt (2-el integral package), F12 methods
   Garnet Chan, S. Sharma, J. Yang, R. Olivares  : DMRG
   Ulf Ekstrom                                   : XCFun DFT Library
   Mihaly Kallay                                 : mrcc  (arbitrary order and MRCC methods)
   Frank Weinhold                                : gennbo (NPA and NBO analysis)
   Simon Mueller                                 : openCOSMO-RS
   Christopher J. Cramer and Donald G. Truhlar   : smd solvation model
   Lars Goerigk                                  : TD-DFT with DH, B97 family of functionals
   V. Asgeirsson, H. Jonsson                     : NEB implementation
   FAccTs GmbH                                   : IRC, NEB, NEB-TS, DLPNO-Multilevel, CI-OPT
                                                   MM, QMMM, 2- and 3-layer-ONIOM, Crystal-QMMM,
                                                   LR-CPCM, SF, NACMEs, symmetry and pop. for TD-DFT,
                                                   nearIR, NL-DFT gradient (VV10), updates on ESD,
                                                   ML-optimized integration grids, MBIS, APM,
                                                   GOAT, DOCKER, SOLVATOR, interface openCOSMO-RS
   S Lehtola, MJT Oliveira, MAL Marques          : LibXC Library
   Liviu Ungur et al                             : ANISO software


 Your calculation uses the libint2 library for the computation of 2-el integrals
 For citations please refer to: http://libint.valeyev.net

 Your ORCA version has been built with support for libXC version: 6.2.2
 For citations please refer to: https://libxc.gitlab.io

 This ORCA versions uses:
   CBLAS   interface :  Fast vector & matrix operations
   LAPACKE interface :  Fast linear algebra routines
   SCALAPACK package :  Parallel linear algebra routines
   Shared memory     :  Shared parallel matrices
   BLAS/LAPACK       :  OpenBLAS 0.3.27  USE64BITINT DYNAMIC_ARCH NO_AFFINITY Zen SINGLE_THREADED
        Core in use  :  Zen
   Copyright (c) 2011-2014, The OpenBLAS Project


Your calculation utilizes the atom-pairwise dispersion correction
with the Becke-Johnson damping scheme (D3BJ)


Warning: RI is on but no J-basis has been assigned. Assigning Def2/J (nothing to worry about!)
================================================================================

----- Orbital basis set information -----
Your calculation utilizes the basis: def2-TZVPPD
   F. Weigend and R. Ahlrichs, Phys. Chem. Chem. Phys. 7, 3297 (2005).
   D. Rappoport and F. Furche, J. Chem. Phys. 133, 134105 (2010)
   D. Rappoport, J. Chem. Phys. 155, 124102 (2021).

----- AuxJ basis set information -----
Your calculation utilizes the auxiliary basis: def2/J
   F. Weigend, Phys. Chem. Chem. Phys. 8, 1057 (2006).

================================================================================
                                        WARNINGS
                       Please study these warnings very carefully!
================================================================================

Using LibXC functional ID 531 : wB97M-V exchange-correlation functional
[ 1]  N. Mardirossian and M. Head-Gordon.,  J. Chem. Phys. 144, 214110 (2016)
Using LibXC functional ID 531 : wB97M-V exchange-correlation functional
[ 1]  N. Mardirossian and M. Head-Gordon.,  J. Chem. Phys. 144, 214110 (2016)

WARNING: B97M-V or wB97M-V functional requested.
  ===> : libXC variant has now been activated.
         Any manually given DFX/HFX/RangeSep scaling parameters are IGNORED!

Your calculation utilizes LibXC
 by S Lehtola, C Steigemann, MJT Oliveira & MAL Marques
Please cite in your paper:
 S Lehtola, C Steigemann, MJT Oliveira & MAL Marques, SoftwareX, 7, (2018), 1.
   


WARNING: your system is open-shell and RHF/RKS was chosen
  ===> : WILL SWITCH to UHF/UKS

INFO   : Checking CIS options ...

WARNING: CIS/ROCIS methods need fully converged wavefunctions
  ===> : Setting SCFConvForced true
         You can overwrite this default with %scf ConvForced false 


================================================================================
                                       INPUT FILE
================================================================================
NAME = orca.inp
|  1> ! Engrad def2-TZVPPD wB97M-D3BJ 
|  2> %pal nprocs 8 end%pal nprocs 64 end 
|  3> %tddft 
|  4>  Iroot 2 Nroots 3 
|  5> sf true 
|  6> end 
|  7> *xyz 0 3 
|  8> O   3.42461063 -0.27695146 -0.19617071
|  9> O   -0.63158749 0.85391104 -2.79744103
| 10> O   -0.08363157 -2.89489992 -0.53488241
| 11> O   -3.764212 -0.31767385 0.13051087
| 12> N   -0.19669061 -1.39723529 1.14987043
| 13> N   -1.98159747 0.88581321 0.91300416
| 14> N   1.48102957 -1.31719139 -0.52405312
| 15> N   -1.97750997 -0.06108047 -1.2030885
| 16> C   1.65186365 0.08658196 1.40016604
| 17> C   -0.14542225 1.29760407 -0.55414058
| 18> C   0.18560133 -0.04919291 1.61656837
| 19> C   -0.58227101 1.11531825 0.82738161
| 20> C   2.41400958 1.17964094 2.05698304
| 21> C   1.13648647 2.00598436 -0.97888522
| 22> C   2.30982172 -0.53769842 0.24715218
| 23> C   -0.92525603 0.69637539 -1.61169463
| 24> C   0.3725356 -1.97723818 0.04734391
| 25> C   -2.67321863 0.14277124 -0.01220186
| 26> H   -0.12948341 0.06464294 2.66339781
| 27> H   -0.45185997 2.03351824 1.46787283
| 28> H   3.35289065 1.22302943 1.47625454
| 29> H   1.9175647 2.11246226 2.06446917
| 30> H   2.5973472 1.0506899 3.15131095
| 31> H   1.78744968 1.35495505 -1.51842506
| 32> H   0.87027053 2.70370287 -1.82567038
| 33> H   1.5619067 2.50467086 -0.1666167
| 34> H   -1.21642508 -1.57823181 1.16291599
| 35> H   -2.41429963 0.97650953 1.81878752
| 36> H   1.91155598 -1.90769901 -1.26023508
| 37> H   -2.4781155 -0.55940043 -1.90412432
| 38> *
| 39> 
| 40>                          ****END OF INPUT****
================================================================================

                     *******************************
                     * Energy+Gradient Calculation *
                     *******************************

---------------------------------
CARTESIAN COORDINATES (ANGSTROEM)
---------------------------------
  O      3.424611   -0.276951   -0.196171
  O     -0.631587    0.853911   -2.797441
  O     -0.083632   -2.894900   -0.534882
  O     -3.764212   -0.317674    0.130511
  N     -0.196691   -1.397235    1.149870
  N     -1.981597    0.885813    0.913004
  N      1.481030   -1.317191   -0.524053
  N     -1.977510   -0.061080   -1.203089
  C      1.651864    0.086582    1.400166
  C     -0.145422    1.297604   -0.554141
  C      0.185601   -0.049193    1.616568
  C     -0.582271    1.115318    0.827382
  C      2.414010    1.179641    2.056983
  C      1.136486    2.005984   -0.978885
  C      2.309822   -0.537698    0.247152
  C     -0.925256    0.696375   -1.611695
  C      0.372536   -1.977238    0.047344
  C     -2.673219    0.142771   -0.012202
  H     -0.129483    0.064643    2.663398
  H     -0.451860    2.033518    1.467873
  H      3.352891    1.223029    1.476255
  H      1.917565    2.112462    2.064469
  H      2.597347    1.050690    3.151311
  H      1.787450    1.354955   -1.518425
  H      0.870271    2.703703   -1.825670
  H      1.561907    2.504671   -0.166617
  H     -1.216425   -1.578232    1.162916
  H     -2.414300    0.976510    1.818788
  H      1.911556   -1.907699   -1.260235
  H     -2.478115   -0.559400   -1.904124

----------------------------
CARTESIAN COORDINATES (A.U.)
----------------------------
  NO LB      ZA    FRAG     MASS         X           Y           Z
   0 O     8.0000    0    15.999    6.471576   -0.523362   -0.370709
   1 O     8.0000    0    15.999   -1.193527    1.613658   -5.286397
   2 O     8.0000    0    15.999   -0.158041   -5.470568   -1.010781
   3 O     8.0000    0    15.999   -7.113330   -0.600317    0.246630
   4 N     7.0000    0    14.007   -0.371691   -2.640392    2.172940
   5 N     7.0000    0    14.007   -3.744677    1.673944    1.725328
   6 N     7.0000    0    14.007    2.798740   -2.489131   -0.990317
   7 N     7.0000    0    14.007   -3.736952   -0.115425   -2.273508
   8 C     6.0000    0    12.011    3.121570    0.163616    2.645930
   9 C     6.0000    0    12.011   -0.274808    2.452116   -1.047174
  10 C     6.0000    0    12.011    0.350736   -0.092961    3.054871
  11 C     6.0000    0    12.011   -1.100333    2.107646    1.563525
  12 C     6.0000    0    12.011    4.561817    2.229198    3.887135
  13 C     6.0000    0    12.011    2.147648    3.790761   -1.849825
  14 C     6.0000    0    12.011    4.364930   -1.016103    0.467050
  15 C     6.0000    0    12.011   -1.748481    1.315959   -3.045661
  16 C     6.0000    0    12.011    0.703990   -3.736439    0.089467
  17 C     6.0000    0    12.011   -5.051651    0.269799   -0.023058
  18 H     1.0000    0     1.008   -0.244688    0.122157    5.033092
  19 H     1.0000    0     1.008   -0.853892    3.842793    2.773878
  20 H     1.0000    0     1.008    6.336045    2.311191    2.789717
  21 H     1.0000    0     1.008    3.623672    3.991975    3.901281
  22 H     1.0000    0     1.008    4.908275    1.985516    5.955115
  23 H     1.0000    0     1.008    3.377790    2.560494   -2.869408
  24 H     1.0000    0     1.008    1.644573    5.109258   -3.450017
  25 H     1.0000    0     1.008    2.951576    4.733142   -0.314860
  26 H     1.0000    0     1.008   -2.298710   -2.982426    2.197593
  27 H     1.0000    0     1.008   -4.562365    1.845336    3.437010
  28 H     1.0000    0     1.008    3.612317   -3.605029   -2.381499
  29 H     1.0000    0     1.008   -4.682960   -1.057114   -3.598273

--------------------------------
INTERNAL COORDINATES (ANGSTROEM)
--------------------------------
 O      0   0   0     0.000000000000     0.00000000     0.00000000
 O      1   0   0     4.949565684008     0.00000000     0.00000000
 O      1   2   0     4.390460464324    56.00344515     0.00000000
 O      2   1   3     4.445092777867    99.85397821    45.37684151
 N      3   1   2     2.257027652105    65.59236422   272.38449359
 N      4   2   1     2.288753244684    62.46542252    44.91260187
 N      3   1   2     2.222036444837     9.45473284   350.07281487
 N      4   2   1     2.244244101325    10.70056922   322.86719801
 C      5   3   1     2.383592745405   116.91107244     0.66402568
 C      2   1   3     2.337865918830    50.84994474    90.03045977
 C      5   3   1     1.476879261438   145.95349155    31.84522575
 C      6   4   2     1.420604915559   146.25681770   322.74682837
 C      9   5   3     1.485615335093   154.46318485   182.10877349
 C     10   2   1     1.524959216137    89.75399962    55.51381320
 C      1   2   3     1.227712700841    59.61371106   319.21530234
 C      2   1   3     1.231687142711    70.13639000    60.62348715
 C      3   1   2     1.178634397829    35.74521827   276.51001895
 C      4   2   1     1.192746049079    34.39354973    34.74791764
 H     11   5   3     1.099130961522   108.74131101   185.44181083
 H     12   6   4     1.127087957476   102.20060972   171.55812351
 H     13   9   5     1.104819358710   103.44241622   176.60676541
 H     13   9   5     1.056725686291   114.30604236   298.17035672
 H     13   9   5     1.117047281107   115.61932328    53.38244363
 H     14  10   2     1.067096763279   111.72973516   300.57404093
 H     14  10   2     1.129038153962   107.32271268    47.07533435
 H     14  10   2     1.043767572766   110.35314213   170.12086036
 H      5   3   1     1.035754949877    86.71879695   162.33694289
 H      6   4   2     1.007918884129    91.15698553   173.08853244
 H      7   3  17     1.037311967161    83.37323694   164.72034403
 H      8   4  18     0.995178325791    87.75734744   182.86909249

---------------------------
INTERNAL COORDINATES (A.U.)
---------------------------
 O      0   0   0     0.000000000000     0.00000000     0.00000000
 O      1   0   0     9.353323624630     0.00000000     0.00000000
 O      1   2   0     8.296767879382    56.00344515     0.00000000
 O      2   1   3     8.400007990039    99.85397821    45.37684151
 N      3   1   2     4.265164139166    65.59236422   272.38449359
 N      4   2   1     4.325116820576    62.46542252    44.91260187
 N      3   1   2     4.199040340333     9.45473284   350.07281487
 N      4   2   1     4.241006729172    10.70056922   322.86719801
 C      5   3   1     4.504337503617   116.91107244     0.66402568
 C      2   1   3     4.417926324416    50.84994474    90.03045977
 C      5   3   1     2.790897336985   145.95349155    31.84522575
 C      6   4   2     2.684554234909   146.25681770   322.74682837
 C      9   5   3     2.807406123679   154.46318485   182.10877349
 C     10   2   1     2.881755283898    89.75399962    55.51381320
 C      1   2   3     2.320040775726    59.61371106   319.21530234
 C      2   1   3     2.327551382396    70.13639000    60.62348715
 C      3   1   2     2.227296223917    35.74521827   276.51001895
 C      4   2   1     2.253963380076    34.39354973    34.74791764
 H     11   5   3     2.077056502591   108.74131101   185.44181083
 H     12   6   4     2.129887568470   102.20060972   171.55812351
 H     13   9   5     2.087806015417   103.44241622   176.60676541
 H     13   9   5     1.996922145770   114.30604236   298.17035672
 H     13   9   5     2.110913439934   115.61932328    53.38244363
 H     14  10   2     2.016520640990   111.72973516   300.57404093
 H     14  10   2     2.133572905737   107.32271268    47.07533435
 H     14  10   2     1.972434859996   110.35314213   170.12086036
 H      5   3   1     1.957293197120    86.71879695   162.33694289
 H      6   4   2     1.904690656211    91.15698553   173.08853244
 H      7   3  17     1.960235533373    83.37323694   164.72034403
 H      8   4  18     1.880614490159    87.75734744   182.86909249

---------------------
BASIS SET INFORMATION
---------------------
There are 4 groups of distinct atoms

 Group   1 Type O   : 12s7p3d1f contracted to 6s4p3d1f pattern {621111/4111/111/1}
 Group   2 Type N   : 12s6p3d1f contracted to 6s3p3d1f pattern {621111/411/111/1}
 Group   3 Type C   : 12s6p3d1f contracted to 6s3p3d1f pattern {621111/411/111/1}
 Group   4 Type H   : 5s3p1d contracted to 3s3p1d pattern {311/111/1}

Atom   0O    basis set group =>   1
Atom   1O    basis set group =>   1
Atom   2O    basis set group =>   1
Atom   3O    basis set group =>   1
Atom   4N    basis set group =>   2
Atom   5N    basis set group =>   2
Atom   6N    basis set group =>   2
Atom   7N    basis set group =>   2
Atom   8C    basis set group =>   3
Atom   9C    basis set group =>   3
Atom  10C    basis set group =>   3
Atom  11C    basis set group =>   3
Atom  12C    basis set group =>   3
Atom  13C    basis set group =>   3
Atom  14C    basis set group =>   3
Atom  15C    basis set group =>   3
Atom  16C    basis set group =>   3
Atom  17C    basis set group =>   3
Atom  18H    basis set group =>   4
Atom  19H    basis set group =>   4
Atom  20H    basis set group =>   4
Atom  21H    basis set group =>   4
Atom  22H    basis set group =>   4
Atom  23H    basis set group =>   4
Atom  24H    basis set group =>   4
Atom  25H    basis set group =>   4
Atom  26H    basis set group =>   4
Atom  27H    basis set group =>   4
Atom  28H    basis set group =>   4
Atom  29H    basis set group =>   4
---------------------------------
AUXILIARY/J BASIS SET INFORMATION
---------------------------------
There are 4 groups of distinct atoms

 Group   1 Type O   : 12s5p4d2f1g contracted to 6s4p3d1f1g pattern {711111/2111/211/2/1}
 Group   2 Type N   : 12s5p4d2f1g contracted to 6s4p3d1f1g pattern {711111/2111/211/2/1}
 Group   3 Type C   : 12s5p4d2f1g contracted to 6s4p3d1f1g pattern {711111/2111/211/2/1}
 Group   4 Type H   : 5s2p1d contracted to 3s1p1d pattern {311/2/1}

Atom   0O    basis set group =>   1
Atom   1O    basis set group =>   1
Atom   2O    basis set group =>   1
Atom   3O    basis set group =>   1
Atom   4N    basis set group =>   2
Atom   5N    basis set group =>   2
Atom   6N    basis set group =>   2
Atom   7N    basis set group =>   2
Atom   8C    basis set group =>   3
Atom   9C    basis set group =>   3
Atom  10C    basis set group =>   3
Atom  11C    basis set group =>   3
Atom  12C    basis set group =>   3
Atom  13C    basis set group =>   3
Atom  14C    basis set group =>   3
Atom  15C    basis set group =>   3
Atom  16C    basis set group =>   3
Atom  17C    basis set group =>   3
Atom  18H    basis set group =>   4
Atom  19H    basis set group =>   4
Atom  20H    basis set group =>   4
Atom  21H    basis set group =>   4
Atom  22H    basis set group =>   4
Atom  23H    basis set group =>   4
Atom  24H    basis set group =>   4
Atom  25H    basis set group =>   4
Atom  26H    basis set group =>   4
Atom  27H    basis set group =>   4
Atom  28H    basis set group =>   4
Atom  29H    basis set group =>   4
[1741399335.644787] [ohm:1406002:0]        ib_iface.c:1059 UCX  ERROR ibv_create_cq(cqe=256) failed: Connection timed out
[1741399335.655261] [ohm:1405989:0]        ib_iface.c:1059 UCX  ERROR ibv_create_cq(cqe=256) failed: Connection timed out
[1741399335.658162] [ohm:1405995:0]        ib_iface.c:1059 UCX  ERROR ibv_create_cq(cqe=256) failed: Connection timed out
[1741399335.665337] [ohm:1405990:0]        ib_iface.c:1059 UCX  ERROR ibv_create_cq(cqe=256) failed: Connection timed out
[1741399335.672869] [ohm:1405991:0]        ib_iface.c:1059 UCX  ERROR ibv_create_cq(cqe=256) failed: Connection timed out
[1741399335.676280] [ohm:1405993:0]        ib_iface.c:1059 UCX  ERROR ibv_create_cq(cqe=256) failed: Connection timed out
[1741399335.688481] [ohm:1405997:0]        ib_iface.c:1059 UCX  ERROR ibv_create_cq(cqe=256) failed: Connection timed out
[1741399335.690132] [ohm:1405996:0]        ib_iface.c:1059 UCX  ERROR ibv_create_cq(cqe=256) failed: Connection timed out
[1741399335.695830] [ohm:1405987:0]        ib_iface.c:1059 UCX  ERROR ibv_create_cq(cqe=256) failed: Connection timed out
[1741399335.700603] [ohm:1405994:0]        ib_iface.c:1059 UCX  ERROR ibv_create_cq(cqe=256) failed: Connection timed out
[1741399335.706035] [ohm:1405986:0]        ib_iface.c:1059 UCX  ERROR ibv_create_cq(cqe=256) failed: Connection timed out
[1741399335.727971] [ohm:1406009:0]        ib_iface.c:1059 UCX  ERROR ibv_create_cq(cqe=256) failed: Connection timed out
[1741399335.757347] [ohm:1405992:0]        ib_iface.c:1059 UCX  ERROR ibv_create_cq(cqe=256) failed: Connection timed out
[1741399335.768272] [ohm:1406037:0]        ib_iface.c:1059 UCX  ERROR ibv_create_cq(cqe=256) failed: Connection timed out
[1741399335.802865] [ohm:1406007:0]        ib_iface.c:1059 UCX  ERROR ibv_create_cq(cqe=256) failed: Connection timed out
[1741399335.811090] [ohm:1405988:0]        ib_iface.c:1059 UCX  ERROR ibv_create_cq(cqe=256) failed: Connection timed out
[1741399335.816460] [ohm:1406096:0]        ib_iface.c:1059 UCX  ERROR ibv_create_cq(cqe=256) failed: Connection timed out
[1741399335.818103] [ohm:1406110:0]        ib_iface.c:1059 UCX  ERROR ibv_create_cq(cqe=256) failed: Connection timed out
[1741399335.827010] [ohm:1406117:0]        ib_iface.c:1059 UCX  ERROR ibv_create_cq(cqe=256) failed: Connection timed out
[1741399335.827298] [ohm:1406113:0]        ib_iface.c:1059 UCX  ERROR ibv_create_cq(cqe=256) failed: Connection timed out
[1741399335.831011] [ohm:1406005:0]        ib_iface.c:1059 UCX  ERROR ibv_create_cq(cqe=256) failed: Connection timed out
[1741399335.831079] [ohm:1406123:0]        ib_iface.c:1059 UCX  ERROR ibv_create_cq(cqe=256) failed: Connection timed out
[1741399335.838001] [ohm:1406106:0]        ib_iface.c:1059 UCX  ERROR ibv_create_cq(cqe=256) failed: Connection timed out
[1741399335.845765] [ohm:1406023:0]        ib_iface.c:1059 UCX  ERROR ibv_create_cq(cqe=256) failed: Connection timed out
[1741399335.850152] [ohm:1406093:0]        ib_iface.c:1059 UCX  ERROR ibv_create_cq(cqe=256) failed: Connection timed out
[1741399335.850342] [ohm:1406103:0]        ib_iface.c:1059 UCX  ERROR ibv_create_cq(cqe=256) failed: Connection timed out
[1741399335.852605] [ohm:1406001:0]        ib_iface.c:1059 UCX  ERROR ibv_create_cq(cqe=256) failed: Connection timed out
[1741399335.865134] [ohm:1406032:0]        ib_iface.c:1059 UCX  ERROR ibv_create_cq(cqe=256) failed: Connection timed out
[1741399335.871347] [ohm:1406129:0]        ib_iface.c:1059 UCX  ERROR ibv_create_cq(cqe=256) failed: Connection timed out
[1741399335.885797] [ohm:1405998:0]        ib_iface.c:1059 UCX  ERROR ibv_create_cq(cqe=256) failed: Connection timed out
[1741399335.886549] [ohm:1406135:0]        ib_iface.c:1059 UCX  ERROR ibv_create_cq(cqe=256) failed: Connection timed out
[1741399335.889140] [ohm:1406115:0]        ib_iface.c:1059 UCX  ERROR ibv_create_cq(cqe=256) failed: Connection timed out
[1741399335.890998] [ohm:1406100:0]        ib_iface.c:1059 UCX  ERROR ibv_create_cq(cqe=256) failed: Connection timed out
[1741399335.896717] [ohm:1406000:0]        ib_iface.c:1059 UCX  ERROR ibv_create_cq(cqe=256) failed: Connection timed out
[1741399335.898065] [ohm:1406018:0]        ib_iface.c:1059 UCX  ERROR ibv_create_cq(cqe=256) failed: Connection timed out
[1741399335.910416] [ohm:1406026:0]        ib_iface.c:1059 UCX  ERROR ibv_create_cq(cqe=256) failed: Connection timed out
[1741399335.920713] [ohm:1406045:0]        ib_iface.c:1059 UCX  ERROR ibv_create_cq(cqe=256) failed: Connection timed out
[1741399335.926941] [ohm:1406084:0]        ib_iface.c:1059 UCX  ERROR ibv_create_cq(cqe=256) failed: Connection timed out
[1741399335.931484] [ohm:1406076:0]        ib_iface.c:1059 UCX  ERROR ibv_create_cq(cqe=256) failed: Connection timed out
[1741399335.931728] [ohm:1406050:0]        ib_iface.c:1059 UCX  ERROR ibv_create_cq(cqe=256) failed: Connection timed out
[1741399335.932157] [ohm:1406128:0]        ib_iface.c:1059 UCX  ERROR ibv_create_cq(cqe=256) failed: Connection timed out
[1741399335.936464] [ohm:1406043:0]        ib_iface.c:1059 UCX  ERROR ibv_create_cq(cqe=256) failed: Connection timed out
[1741399335.938226] [ohm:1406011:0]        ib_iface.c:1059 UCX  ERROR ibv_create_cq(cqe=256) failed: Connection timed out
[1741399335.946660] [ohm:1406086:0]        ib_iface.c:1059 UCX  ERROR ibv_create_cq(cqe=256) failed: Connection timed out
[1741399335.949194] [ohm:1406058:0]        ib_iface.c:1059 UCX  ERROR ibv_create_cq(cqe=256) failed: Connection timed out
[1741399335.949455] [ohm:1406013:0]        ib_iface.c:1059 UCX  ERROR ibv_create_cq(cqe=256) failed: Connection timed out
[1741399335.953876] [ohm:1406071:0]        ib_iface.c:1059 UCX  ERROR ibv_create_cq(cqe=256) failed: Connection timed out
[1741399335.958258] [ohm:1406006:0]        ib_iface.c:1059 UCX  ERROR ibv_create_cq(cqe=256) failed: Connection timed out
[1741399335.962581] [ohm:1406012:0]        ib_iface.c:1059 UCX  ERROR ibv_create_cq(cqe=256) failed: Connection timed out
[1741399335.964164] [ohm:1406014:0]        ib_iface.c:1059 UCX  ERROR ibv_create_cq(cqe=256) failed: Connection timed out
[1741399335.965336] [ohm:1406067:0]        ib_iface.c:1059 UCX  ERROR ibv_create_cq(cqe=256) failed: Connection timed out
[1741399335.971269] [ohm:1406066:0]        ib_iface.c:1059 UCX  ERROR ibv_create_cq(cqe=256) failed: Connection timed out
[1741399335.971649] [ohm:1406033:0]        ib_iface.c:1059 UCX  ERROR ibv_create_cq(cqe=256) failed: Connection timed out
[1741399335.971877] [ohm:1406008:0]        ib_iface.c:1059 UCX  ERROR ibv_create_cq(cqe=256) failed: Connection timed out
[1741399335.975106] [ohm:1406073:0]        ib_iface.c:1059 UCX  ERROR ibv_create_cq(cqe=256) failed: Connection timed out
[1741399335.976845] [ohm:1406120:0]        ib_iface.c:1059 UCX  ERROR ibv_create_cq(cqe=256) failed: Connection timed out
[1741399335.978154] [ohm:1406079:0]        ib_iface.c:1059 UCX  ERROR ibv_create_cq(cqe=256) failed: Connection timed out
[1741399335.978687] [ohm:1406039:0]        ib_iface.c:1059 UCX  ERROR ibv_create_cq(cqe=256) failed: Connection timed out
[1741399335.978904] [ohm:1406090:0]        ib_iface.c:1059 UCX  ERROR ibv_create_cq(cqe=256) failed: Connection timed out
[1741399335.979805] [ohm:1406010:0]        ib_iface.c:1059 UCX  ERROR ibv_create_cq(cqe=256) failed: Connection timed out
[1741399335.979963] [ohm:1405999:0]        ib_iface.c:1059 UCX  ERROR ibv_create_cq(cqe=256) failed: Connection timed out
[1741399335.982030] [ohm:1406055:0]        ib_iface.c:1059 UCX  ERROR ibv_create_cq(cqe=256) failed: Connection timed out
[1741399335.984613] [ohm:1406003:0]        ib_iface.c:1059 UCX  ERROR ibv_create_cq(cqe=256) failed: Connection timed out
[1741399335.987180] [ohm:1406004:0]        ib_iface.c:1059 UCX  ERROR ibv_create_cq(cqe=256) failed: Connection timed out


           ************************************************************
           *        Program running with 64 parallel MPI-processes    *
           *              working on a common directory               *
           ************************************************************
------------------------------------------------------------------------------
                             ORCA STARTUP CALCULATIONS
                           -- RI-GTO INTEGRALS CHOSEN --
------------------------------------------------------------------------------
------------------------------------------------------------------------------
                   ___                                                        
                  /   \      - P O W E R E D   B Y -                         
                 /     \                                                     
                 |  |  |   _    _      __       _____    __    __             
                 |  |  |  | |  | |    /  \     |  _  \  |  |  /  |          
                  \  \/   | |  | |   /    \    | | | |  |  | /  /          
                 / \  \   | |__| |  /  /\  \   | |_| |  |  |/  /          
                |  |  |   |  __  | /  /__\  \  |    /   |      \           
                |  |  |   | |  | | |   __   |  |    \   |  |\   \          
                \     /   | |  | | |  |  |  |  | |\  \  |  | \   \       
                 \___/    |_|  |_| |__|  |__|  |_| \__\ |__|  \__/        
                                                                              
                      - O R C A' S   B I G   F R I E N D -                    
                                      &                                       
                       - I N T E G R A L  F E E D E R -                       
                                                                              
 v1 FN, 2020, v2 2021, v3 2022-2024                                           
------------------------------------------------------------------------------


----------------------
SHARK INTEGRAL PACKAGE
----------------------

Number of atoms                             ...     30
Number of basis functions                   ...    882
Number of shells                            ...    322
Maximum angular momentum                    ...      3
Integral batch strategy                     ... SHARK/LIBINT Hybrid
RI-J (if used) integral strategy            ... SPLIT-RIJ (Revised 2003 algorithm where possible)
Printlevel                                  ...      1
Contraction scheme used                     ... SEGMENTED contraction
Prescreening option                         ... SCHWARTZ
   Thresh                                   ... 2.500e-11
   Tcut                                     ... 2.500e-12
   Tpresel                                  ... 2.500e-12 
Coulomb Range Separation                    ... NOT USED
Exchange Range Separation                   ... Long Range
   Mu parameter                             ... 3.000e-01
   Scaling (regular/separated)              ... 1.500e-01 8.500e-01
Multipole approximations                    ... NOT USED
Finite Nucleus Model                        ... NOT USED
CABS basis                                  ... NOT available
Auxiliary Coulomb fitting basis             ... AVAILABLE
   # of basis functions in Aux-J            ...   1014
   # of shells in Aux-J                     ...    330
   Maximum angular momentum in Aux-J        ...      4
Auxiliary J/K fitting basis                 ... NOT available
Auxiliary Correlation fitting basis         ... NOT available
Auxiliary 'external' fitting basis          ... NOT available

Checking pre-screening integrals            ... done (  0.0 sec) Dimension = 322
Check shell pair data                       ... done (  0.0 sec)
Shell pair information
Shell pair cut-off parameter TPreSel        ...   2.5e-12
Total number of shell pairs                 ...     52003
Shell pairs after pre-screening             ...     45424
Total number of primitive shell pairs       ...    129718
Primitive shell pairs kept                  ...     85244
          la=0 lb=0:   8791 shell pairs
          la=1 lb=0:  12015 shell pairs
          la=1 lb=1:   4148 shell pairs
          la=2 lb=0:   8163 shell pairs
          la=2 lb=1:   5639 shell pairs
          la=2 lb=2:   1947 shell pairs
          la=3 lb=0:   2095 shell pairs
          la=3 lb=1:   1476 shell pairs
          la=3 lb=2:   1005 shell pairs
          la=3 lb=3:    145 shell pairs

Calculating one electron integrals          ... done (  0.2 sec)
Calculating RI/J V-Matrix + Cholesky decomp.... done (  0.1 sec)
Calculating Nuclear repulsion               ... done (  0.0 sec) ENN=   1462.669594022963 Eh

Diagonalization of the overlap matrix:
Smallest eigenvalue                        ... 4.837e-07
Time for diagonalization                   ...    0.124 sec
Threshold for overlap eigenvalues          ... 1.000e-07
Number of eigenvalues below threshold      ... 0

IMPORTANT:
Smallest eigenvalue of S below the DiffSThresh (1.000e-06) while
Thresh>1e-12 and/or TCut>1e-13! In order to avoid SCF convergence issues,
Thresh will be set to at least 1e-12 and TCut to at least 1e-13.
This can be turned off by adding %SCF DiffSThresh -1 END to the input.

Time for construction of square roots      ...    0.127 sec
Total time needed                          ...    0.267 sec

-------------------
DFT GRID GENERATION
-------------------

General Integration Accuracy     IntAcc      ... 4.388
Radial Grid Type                 RadialGrid  ... OptM3 with GC (2021)
Angular Grid (max. ang.)         AngularGrid ... 4 (Lebedev-302)
Angular grid pruning method      GridPruning ... 4 (adaptive)
Weight generation scheme         WeightScheme... mBecke (2022)
Basis function cutoff            BFCut       ... 1.0000e-11
Integration weight cutoff        WCut        ... 1.0000e-14
Partially contracted basis set               ... off
Rotationally invariant grid construction     ... off
Angular grids for H and He will be reduced by one unit
Diffuse basis detected: some atoms will have their outermost
                        angular grid increased by 1.

Total number of grid points                  ...   151623
Total number of batches                      ...     2383
Average number of points per batch           ...       63
Average number of grid points per atom       ...     5054

--------------------
COSX GRID GENERATION
--------------------

GRIDX 1
-------
General Integration Accuracy     IntAcc      ... 3.816
Radial Grid Type                 RadialGrid  ... OptM3 with GC (2021)
Angular Grid (max. ang.)         AngularGrid ... 1 (Lebedev-50)
Angular grid pruning method      GridPruning ... 4 (adaptive)
Weight generation scheme         WeightScheme... mBecke (2022)
Basis function cutoff            BFCut       ... 1.0000e-11
Integration weight cutoff        WCut        ... 1.0000e-14
Partially contracted basis set               ... on
Rotationally invariant grid construction     ... off
Angular grids for H and He will be reduced by one unit
Diffuse basis detected: some atoms will have their outermost
                        angular grid increased by 1.

Total number of grid points                  ...    19002
Total number of batches                      ...      166
Average number of points per batch           ...      114
Average number of grid points per atom       ...      633
UseSFitting                                  ... on

GRIDX 2
-------
General Integration Accuracy     IntAcc      ... 4.020
Radial Grid Type                 RadialGrid  ... OptM3 with GC (2021)
Angular Grid (max. ang.)         AngularGrid ... 2 (Lebedev-110)
Angular grid pruning method      GridPruning ... 4 (adaptive)
Weight generation scheme         WeightScheme... mBecke (2022)
Basis function cutoff            BFCut       ... 1.0000e-11
Integration weight cutoff        WCut        ... 1.0000e-14
Partially contracted basis set               ... on
Rotationally invariant grid construction     ... off
Angular grids for H and He will be reduced by one unit
Diffuse basis detected: some atoms will have their outermost
                        angular grid increased by 1.

Total number of grid points                  ...    45672
Total number of batches                      ...      373
Average number of points per batch           ...      122
Average number of grid points per atom       ...     1522
UseSFitting                                  ... on

GRIDX 3
-------
General Integration Accuracy     IntAcc      ... 4.338
Radial Grid Type                 RadialGrid  ... OptM3 with GC (2021)
Angular Grid (max. ang.)         AngularGrid ... 3 (Lebedev-194)
Angular grid pruning method      GridPruning ... 4 (adaptive)
Weight generation scheme         WeightScheme... mBecke (2022)
Basis function cutoff            BFCut       ... 1.0000e-11
Integration weight cutoff        WCut        ... 1.0000e-14
Partially contracted basis set               ... on
Rotationally invariant grid construction     ... off
Angular grids for H and He will be reduced by one unit
Diffuse basis detected: some atoms will have their outermost
                        angular grid increased by 1.

Total number of grid points                  ...   100625
Total number of batches                      ...      801
Average number of points per batch           ...      125
Average number of grid points per atom       ...     3354
UseSFitting                                  ... on
Initializing property integral containers    ... done (  0.0 sec)

SHARK setup successfully completed in   4.3 seconds

Maximum memory used throughout the entire STARTUP-calculation: 80.6 MB
[1741399342.298248] [ohm:1406353:0]        ib_iface.c:1059 UCX  ERROR ibv_create_cq(cqe=256) failed: Connection timed out
[1741399342.304511] [ohm:1406358:0]        ib_iface.c:1059 UCX  ERROR ibv_create_cq(cqe=256) failed: Connection timed out
[1741399342.313296] [ohm:1406357:0]        ib_iface.c:1059 UCX  ERROR ibv_create_cq(cqe=256) failed: Connection timed out
[1741399342.325077] [ohm:1406367:0]        ib_iface.c:1059 UCX  ERROR ibv_create_cq(cqe=256) failed: Connection timed out
[1741399342.325404] [ohm:1406355:0]        ib_iface.c:1059 UCX  ERROR ibv_create_cq(cqe=256) failed: Connection timed out
[1741399342.328718] [ohm:1406359:0]        ib_iface.c:1059 UCX  ERROR ibv_create_cq(cqe=256) failed: Connection timed out
[1741399342.329848] [ohm:1406364:0]        ib_iface.c:1059 UCX  ERROR ibv_create_cq(cqe=256) failed: Connection timed out
[1741399342.338900] [ohm:1406366:0]        ib_iface.c:1059 UCX  ERROR ibv_create_cq(cqe=256) failed: Connection timed out
[1741399342.342158] [ohm:1406363:0]        ib_iface.c:1059 UCX  ERROR ibv_create_cq(cqe=256) failed: Connection timed out
[1741399342.344124] [ohm:1406370:0]        ib_iface.c:1059 UCX  ERROR ibv_create_cq(cqe=256) failed: Connection timed out
[1741399342.347109] [ohm:1406354:0]        ib_iface.c:1059 UCX  ERROR ibv_create_cq(cqe=256) failed: Connection timed out
[1741399342.369651] [ohm:1406433:0]        ib_iface.c:1059 UCX  ERROR ibv_create_cq(cqe=256) failed: Connection timed out
[1741399342.378175] [ohm:1406404:0]        ib_iface.c:1059 UCX  ERROR ibv_create_cq(cqe=256) failed: Connection timed out
[1741399342.385226] [ohm:1406407:0]        ib_iface.c:1059 UCX  ERROR ibv_create_cq(cqe=256) failed: Connection timed out
[1741399342.389085] [ohm:1406468:0]        ib_iface.c:1059 UCX  ERROR ibv_create_cq(cqe=256) failed: Connection timed out
[1741399342.392615] [ohm:1406483:0]        ib_iface.c:1059 UCX  ERROR ibv_create_cq(cqe=256) failed: Connection timed out
[1741399342.418634] [ohm:1406369:0]        ib_iface.c:1059 UCX  ERROR ibv_create_cq(cqe=256) failed: Connection timed out
[1741399342.469661] [ohm:1406459:0]        ib_iface.c:1059 UCX  ERROR ibv_create_cq(cqe=256) failed: Connection timed out
[1741399342.471758] [ohm:1406413:0]        ib_iface.c:1059 UCX  ERROR ibv_create_cq(cqe=256) failed: Connection timed out
[1741399342.488421] [ohm:1406475:0]        ib_iface.c:1059 UCX  ERROR ibv_create_cq(cqe=256) failed: Connection timed out
[1741399342.491059] [ohm:1406351:0]        ib_iface.c:1059 UCX  ERROR ibv_create_cq(cqe=256) failed: Connection timed out
[1741399342.491120] [ohm:1406360:0]        ib_iface.c:1059 UCX  ERROR ibv_create_cq(cqe=256) failed: Connection timed out
[1741399342.509753] [ohm:1406427:0]        ib_iface.c:1059 UCX  ERROR ibv_create_cq(cqe=256) failed: Connection timed out
[1741399342.514312] [ohm:1406452:0]        ib_iface.c:1059 UCX  ERROR ibv_create_cq(cqe=256) failed: Connection timed out
[1741399342.514919] [ohm:1406453:0]        ib_iface.c:1059 UCX  ERROR ibv_create_cq(cqe=256) failed: Connection timed out
[1741399342.516245] [ohm:1406446:0]        ib_iface.c:1059 UCX  ERROR ibv_create_cq(cqe=256) failed: Connection timed out
[1741399342.516479] [ohm:1406444:0]        ib_iface.c:1059 UCX  ERROR ibv_create_cq(cqe=256) failed: Connection timed out
[1741399342.520158] [ohm:1406380:0]        ib_iface.c:1059 UCX  ERROR ibv_create_cq(cqe=256) failed: Connection timed out
[1741399342.525339] [ohm:1406418:0]        ib_iface.c:1059 UCX  ERROR ibv_create_cq(cqe=256) failed: Connection timed out
[1741399342.528964] [ohm:1406436:0]        ib_iface.c:1059 UCX  ERROR ibv_create_cq(cqe=256) failed: Connection timed out
[1741399342.530548] [ohm:1406371:0]        ib_iface.c:1059 UCX  ERROR ibv_create_cq(cqe=256) failed: Connection timed out
[1741399342.532351] [ohm:1406481:0]        ib_iface.c:1059 UCX  ERROR ibv_create_cq(cqe=256) failed: Connection timed out
[1741399342.532672] [ohm:1406471:0]        ib_iface.c:1059 UCX  ERROR ibv_create_cq(cqe=256) failed: Connection timed out
[1741399342.534081] [ohm:1406388:0]        ib_iface.c:1059 UCX  ERROR ibv_create_cq(cqe=256) failed: Connection timed out
[1741399342.548527] [ohm:1406420:0]        ib_iface.c:1059 UCX  ERROR ibv_create_cq(cqe=256) failed: Connection timed out
[1741399342.558840] [ohm:1406400:0]        ib_iface.c:1059 UCX  ERROR ibv_create_cq(cqe=256) failed: Connection timed out
[1741399342.573564] [ohm:1406465:0]        ib_iface.c:1059 UCX  ERROR ibv_create_cq(cqe=256) failed: Connection timed out
[1741399342.577639] [ohm:1406362:0]        ib_iface.c:1059 UCX  ERROR ibv_create_cq(cqe=256) failed: Connection timed out
[1741399342.577755] [ohm:1406457:0]        ib_iface.c:1059 UCX  ERROR ibv_create_cq(cqe=256) failed: Connection timed out
[1741399342.578916] [ohm:1406377:0]        ib_iface.c:1059 UCX  ERROR ibv_create_cq(cqe=256) failed: Connection timed out
[1741399342.580091] [ohm:1406382:0]        ib_iface.c:1059 UCX  ERROR ibv_create_cq(cqe=256) failed: Connection timed out
[1741399342.582982] [ohm:1406350:0]        ib_iface.c:1059 UCX  ERROR ibv_create_cq(cqe=256) failed: Connection timed out
[1741399342.589084] [ohm:1406428:0]        ib_iface.c:1059 UCX  ERROR ibv_create_cq(cqe=256) failed: Connection timed out
[1741399342.590709] [ohm:1406375:0]        ib_iface.c:1059 UCX  ERROR ibv_create_cq(cqe=256) failed: Connection timed out
[1741399342.594360] [ohm:1406397:0]        ib_iface.c:1059 UCX  ERROR ibv_create_cq(cqe=256) failed: Connection timed out
[1741399342.599721] [ohm:1406376:0]        ib_iface.c:1059 UCX  ERROR ibv_create_cq(cqe=256) failed: Connection timed out
[1741399342.605854] [ohm:1406361:0]        ib_iface.c:1059 UCX  ERROR ibv_create_cq(cqe=256) failed: Connection timed out
[1741399342.606960] [ohm:1406440:0]        ib_iface.c:1059 UCX  ERROR ibv_create_cq(cqe=256) failed: Connection timed out
[1741399342.607542] [ohm:1406356:0]        ib_iface.c:1059 UCX  ERROR ibv_create_cq(cqe=256) failed: Connection timed out
[1741399342.610118] [ohm:1406378:0]        ib_iface.c:1059 UCX  ERROR ibv_create_cq(cqe=256) failed: Connection timed out
[1741399342.620657] [ohm:1406449:0]        ib_iface.c:1059 UCX  ERROR ibv_create_cq(cqe=256) failed: Connection timed out
[1741399342.620704] [ohm:1406372:0]        ib_iface.c:1059 UCX  ERROR ibv_create_cq(cqe=256) failed: Connection timed out
[1741399342.621420] [ohm:1406374:0]        ib_iface.c:1059 UCX  ERROR ibv_create_cq(cqe=256) failed: Connection timed out
[1741399342.622183] [ohm:1406368:0]        ib_iface.c:1059 UCX  ERROR ibv_create_cq(cqe=256) failed: Connection timed out
[1741399342.623149] [ohm:1406352:0]        ib_iface.c:1059 UCX  ERROR ibv_create_cq(cqe=256) failed: Connection timed out
[1741399342.623976] [ohm:1406390:0]        ib_iface.c:1059 UCX  ERROR ibv_create_cq(cqe=256) failed: Connection timed out
[1741399342.631998] [ohm:1406373:0]        ib_iface.c:1059 UCX  ERROR ibv_create_cq(cqe=256) failed: Connection timed out
[1741399342.633277] [ohm:1406488:0]        ib_iface.c:1059 UCX  ERROR ibv_create_cq(cqe=256) failed: Connection timed out
[1741399342.633888] [ohm:1406379:0]        ib_iface.c:1059 UCX  ERROR ibv_create_cq(cqe=256) failed: Connection timed out
[1741399342.634026] [ohm:1406384:0]        ib_iface.c:1059 UCX  ERROR ibv_create_cq(cqe=256) failed: Connection timed out
[1741399342.634177] [ohm:1406410:0]        ib_iface.c:1059 UCX  ERROR ibv_create_cq(cqe=256) failed: Connection timed out
[1741399342.635028] [ohm:1406365:0]        ib_iface.c:1059 UCX  ERROR ibv_create_cq(cqe=256) failed: Connection timed out
[1741399342.635083] [ohm:1406477:0]        ib_iface.c:1059 UCX  ERROR ibv_create_cq(cqe=256) failed: Connection timed out
[1741399342.635223] [ohm:1406461:0]        ib_iface.c:1059 UCX  ERROR ibv_create_cq(cqe=256) failed: Connection timed out


           ************************************************************
           *        Program running with 64 parallel MPI-processes    *
           *              working on a common directory               *
           ************************************************************
-------------------------------------------------------------------------------
                                 ORCA GUESS
                   Start orbitals & Density for SCF / CASSCF
-------------------------------------------------------------------------------

------------
SCF SETTINGS
------------
Hamiltonian:
 Density Functional     Method          .... DFT(GTOs)
  Functional kind                       .... Exchange-Correlation
  Functional name                       .... wB97M-V exchange-correlation functional
  Functional family                     .... Hybrid MGGA
  Functional refs                              
    [ 0] N. Mardirossian and M. Head-Gordon.,  J. Chem. Phys. 144, 214110 (2016), doi: 10.1063/1.4952647
  Fraction of HF Exchange (short range) .... 0.1500
  Fraction of HF Exchange (long range)  .... 1.0000
  Range separation parameter mu         .... 0.3000
  Functional external parameters        .... 17
    Parameter  0 _cx00      =  8.500000e-01 : u^00 coefficient for exchange
    Parameter  1 _cx01      =  1.007000e+00 : u^01 coefficient for exchange
    Parameter  2 _cx10      =  2.590000e-01 : u^10 coefficient for exchange
    Parameter  3 _css00     =  4.430000e-01 : u^00 coefficient for same-spin correlation
    Parameter  4 _css04     = -1.437000e+00 : u^04 coefficient for same-spin correlation
    Parameter  5 _css10     = -4.535000e+00 : u^10 coefficient for same-spin correlation
    Parameter  6 _css20     = -3.390000e+00 : u^20 coefficient for same-spin correlation
    Parameter  7 _css43     =  4.278000e+00 : u^43 coefficient for same-spin correlation
    Parameter  8 _cos00     =  1.000000e+00 : u^00 coefficient for opposite-spin correlation
    Parameter  9 _cos10     =  1.358000e+00 : u^10 coefficient for opposite-spin correlation
    Parameter 10 _cos20     =  2.924000e+00 : u^20 coefficient for opposite-spin correlation
    Parameter 11 _cos21     = -8.812000e+00 : u^21 coefficient for opposite-spin correlation
    Parameter 12 _cos60     = -1.390000e+00 : u^60 coefficient for opposite-spin correlation
    Parameter 13 _cos61     =  9.142000e+00 : u^61 coefficient for opposite-spin correlation
    Parameter 14 _alpha     =  1.000000e+00 : fraction of HF exchange
    Parameter 15 _beta      = -8.500000e-01 : fraction of short-range exchange
    Parameter 16 _omega     =  3.000000e-01 : range-separation constant
 Long-range corrected/Screened/Range-Separated Hybrid DFT is turned on
   Amount of maximum screened exact exchange              ....  0.850000
   Range separation parameter mu (erf(mu*r12)/r12)        ....  0.300000
 RI-approximation to the Coulomb term is turned on
   Number of AuxJ basis functions       .... 1014
   RIJ-COSX (HFX calculated with COS-X)).... on


General Settings:
 Integral files         IntName         .... orca
 Hartree-Fock type      HFTyp           .... UHF
 Total Charge           Charge          ....    0
 Multiplicity           Mult            ....    3
 Number of Electrons    NEL             ....  132
 Basis Dimension        Dim             ....  882
 Nuclear Repulsion      ENuc            ....   1462.6695940230 Eh

Convergence Acceleration:
 AO-DIIS                CNVDIIS         .... on
   Start iteration      DIISMaxIt       ....    12
   Startup error        DIISStart       ....  0.200000
   # of expansion vecs  DIISMaxEq       ....     5
   Bias factor          DIISBfac        ....   1.050
   Max. coefficient     DIISMaxC        ....  10.000
 MO-DIIS                CNVKDIIS        .... off
 Trust-Rad. Augm. Hess. CNVTRAH         .... auto
   Auto Start mean grad. ratio tolernc. ....  1.125000
   Auto Start start iteration           ....    50
   Auto Start num. interpolation iter.  ....    10
   Max. Number of Micro iterations      ....    24
   Max. Number of Macro iterations      .... Maxiter - #DIIS iter
   Number of Davidson start vectors     ....     2
   Converg. threshold    (grad. norm)   ....   1.000e-05
   Grad. Scal. Fac. for Micro threshold ....   0.100
   Minimum threshold for Micro iter.    ....   1.000e-02
   NR start threshold (gradient norm)   ....   1.000e-04
   Initial trust radius                 ....   0.400
   Minimum AH scaling param. (alpha)    ....   1.000
   Maximum AH scaling param. (alpha)    .... 1000.000
   Quad. conv. algorithm                .... NR
   White noise on init. David. guess    .... on
   Maximum white noise                  ....   0.010
   Pseudo random numbers                .... off
   Inactive MOs                         .... canonical
   Orbital update algorithm             .... Taylor
   Preconditioner                       .... Diag
   Full preconditioner red. dimension   ....   250
 SOSCF                  CNVSOSCF        .... on
   Start iteration      SOSCFMaxIt      ....   150
   Startup grad/error   SOSCFStart      ....  0.003300
   Hessian update       SOSCFHessUp     .... L-BFGS
 Level Shifting         CNVShift        .... on
   Level shift para.    LevelShift      ....    0.2500
   Turn off err/grad.   ShiftErr        ....    0.0010
 Zerner damping         CNVZerner       .... off
 Static damping         CNVDamp         .... on
   Fraction old density DampFac         ....    0.7000
   Max. Damping (<1)    DampMax         ....    0.9800
   Min. Damping (>=0)   DampMin         ....    0.0000
   Turn off err/grad.   DampErr         ....    0.1000

SCF Procedure:
 Maximum # iterations   MaxIter         ....   125
 SCF integral mode      SCFMode         .... Direct
   Integral package                     .... SHARK and LIBINT hybrid scheme
 Reset frequency        DirectResetFreq ....    20
 Integral Threshold     Thresh          ....  1.000e-12 Eh
 Primitive CutOff       TCut            ....  1.000e-13 Eh

Convergence Tolerance:
 Convergence Check Mode ConvCheckMode   .... Total+1el-Energy
 Convergence forced     ConvForced      .... 1
 Energy Change          TolE            ....  1.000e-08 Eh
 1-El. energy change                    ....  1.000e-05 Eh
 Orbital Gradient       TolG            ....  1.000e-05
 Orbital Rotation angle TolX            ....  1.000e-05
 DIIS Error             TolErr          ....  5.000e-07

------------------------------
INITIAL GUESS: MODEL POTENTIAL
------------------------------
Loading Hartree-Fock densities                     ... done
Calculating cut-offs                               ... done
Initializing the effective Hamiltonian             ... done
Setting up the integral package (SHARK)            ... done
Starting the Coulomb interaction                   ... done (   0.1 sec)
Making the grid                                    ... done (   0.3 sec)
Mapping shells                                     ... done
Starting the XC term evaluation                    ... done (   0.2 sec)
  promolecular density results
     # of electrons  =    131.998200844
     EX              =   -113.585107698
     EC              =     -4.507721720
     EX+EC           =   -118.092829418
Transforming the Hamiltonian                       ... done (   0.1 sec)
Diagonalizing the Hamiltonian                      ... done (   0.1 sec)
Back transforming the eigenvectors                 ... done (   0.1 sec)
Now organizing SCF variables                       ... done
                      ------------------
                      INITIAL GUESS DONE (   1.1 sec)
                      ------------------
             **** ENERGY FILE WAS UPDATED (orca.en.tmp) ****
Finished Guess after   3.7 sec
Maximum memory used throughout the entire GUESS-calculation: 73.0 MB
[1741399346.479168] [ohm:1406708:0]        ib_iface.c:1059 UCX  ERROR ibv_create_cq(cqe=256) failed: Connection timed out
[1741399346.496613] [ohm:1406707:0]        ib_iface.c:1059 UCX  ERROR ibv_create_cq(cqe=256) failed: Connection timed out
[1741399346.498444] [ohm:1406702:0]        ib_iface.c:1059 UCX  ERROR ibv_create_cq(cqe=256) failed: Connection timed out
[1741399346.498509] [ohm:1406711:0]        ib_iface.c:1059 UCX  ERROR ibv_create_cq(cqe=256) failed: Connection timed out
[1741399346.510592] [ohm:1406704:0]        ib_iface.c:1059 UCX  ERROR ibv_create_cq(cqe=256) failed: Connection timed out
[1741399346.513033] [ohm:1406706:0]        ib_iface.c:1059 UCX  ERROR ibv_create_cq(cqe=256) failed: Connection timed out
[1741399346.571617] [ohm:1406710:0]        ib_iface.c:1059 UCX  ERROR ibv_create_cq(cqe=256) failed: Connection timed out
[1741399346.574386] [ohm:1406741:0]        ib_iface.c:1059 UCX  ERROR ibv_create_cq(cqe=256) failed: Connection timed out
[1741399346.575321] [ohm:1406751:0]        ib_iface.c:1059 UCX  ERROR ibv_create_cq(cqe=256) failed: Connection timed out
[1741399346.583313] [ohm:1406725:0]        ib_iface.c:1059 UCX  ERROR ibv_create_cq(cqe=256) failed: Connection timed out
[1741399346.585329] [ohm:1406755:0]        ib_iface.c:1059 UCX  ERROR ibv_create_cq(cqe=256) failed: Connection timed out
[1741399346.588220] [ohm:1406709:0]        ib_iface.c:1059 UCX  ERROR ibv_create_cq(cqe=256) failed: Connection timed out
[1741399346.616494] [ohm:1406735:0]        ib_iface.c:1059 UCX  ERROR ibv_create_cq(cqe=256) failed: Connection timed out
[1741399346.630590] [ohm:1406763:0]        ib_iface.c:1059 UCX  ERROR ibv_create_cq(cqe=256) failed: Connection timed out
[1741399346.642398] [ohm:1406757:0]        ib_iface.c:1059 UCX  ERROR ibv_create_cq(cqe=256) failed: Connection timed out
[1741399346.667820] [ohm:1406832:0]        ib_iface.c:1059 UCX  ERROR ibv_create_cq(cqe=256) failed: Connection timed out
[1741399346.668619] [ohm:1406764:0]        ib_iface.c:1059 UCX  ERROR ibv_create_cq(cqe=256) failed: Connection timed out
[1741399346.691667] [ohm:1406829:0]        ib_iface.c:1059 UCX  ERROR ibv_create_cq(cqe=256) failed: Connection timed out
[1741399346.702632] [ohm:1406765:0]        ib_iface.c:1059 UCX  ERROR ibv_create_cq(cqe=256) failed: Connection timed out
[1741399346.706061] [ohm:1406781:0]        ib_iface.c:1059 UCX  ERROR ibv_create_cq(cqe=256) failed: Connection timed out
[1741399346.708074] [ohm:1406813:0]        ib_iface.c:1059 UCX  ERROR ibv_create_cq(cqe=256) failed: Connection timed out
[1741399346.711254] [ohm:1406825:0]        ib_iface.c:1059 UCX  ERROR ibv_create_cq(cqe=256) failed: Connection timed out
[1741399346.716467] [ohm:1406766:0]        ib_iface.c:1059 UCX  ERROR ibv_create_cq(cqe=256) failed: Connection timed out
[1741399346.722887] [ohm:1406779:0]        ib_iface.c:1059 UCX  ERROR ibv_create_cq(cqe=256) failed: Connection timed out
[1741399346.728057] [ohm:1406817:0]        ib_iface.c:1059 UCX  ERROR ibv_create_cq(cqe=256) failed: Connection timed out
[1741399346.730639] [ohm:1406851:0]        ib_iface.c:1059 UCX  ERROR ibv_create_cq(cqe=256) failed: Connection timed out
[1741399346.731957] [ohm:1406753:0]        ib_iface.c:1059 UCX  ERROR ibv_create_cq(cqe=256) failed: Connection timed out
[1741399346.734421] [ohm:1406828:0]        ib_iface.c:1059 UCX  ERROR ibv_create_cq(cqe=256) failed: Connection timed out
[1741399346.737965] [ohm:1406758:0]        ib_iface.c:1059 UCX  ERROR ibv_create_cq(cqe=256) failed: Connection timed out
[1741399346.738664] [ohm:1406754:0]        ib_iface.c:1059 UCX  ERROR ibv_create_cq(cqe=256) failed: Connection timed out
[1741399346.739184] [ohm:1406756:0]        ib_iface.c:1059 UCX  ERROR ibv_create_cq(cqe=256) failed: Connection timed out
[1741399346.740180] [ohm:1406770:0]        ib_iface.c:1059 UCX  ERROR ibv_create_cq(cqe=256) failed: Connection timed out
[1741399346.740413] [ohm:1406762:0]        ib_iface.c:1059 UCX  ERROR ibv_create_cq(cqe=256) failed: Connection timed out
[1741399346.740674] [ohm:1406713:0]        ib_iface.c:1059 UCX  ERROR ibv_create_cq(cqe=256) failed: Connection timed out
[1741399346.746165] [ohm:1406759:0]        ib_iface.c:1059 UCX  ERROR ibv_create_cq(cqe=256) failed: Connection timed out
[1741399346.746372] [ohm:1406724:0]        ib_iface.c:1059 UCX  ERROR ibv_create_cq(cqe=256) failed: Connection timed out
[1741399346.746990] [ohm:1406772:0]        ib_iface.c:1059 UCX  ERROR ibv_create_cq(cqe=256) failed: Connection timed out
[1741399346.748413] [ohm:1406824:0]        ib_iface.c:1059 UCX  ERROR ibv_create_cq(cqe=256) failed: Connection timed out
[1741399346.753651] [ohm:1406723:0]        ib_iface.c:1059 UCX  ERROR ibv_create_cq(cqe=256) failed: Connection timed out
[1741399346.760385] [ohm:1406744:0]        ib_iface.c:1059 UCX  ERROR ibv_create_cq(cqe=256) failed: Connection timed out
[1741399346.773188] [ohm:1406726:0]        ib_iface.c:1059 UCX  ERROR ibv_create_cq(cqe=256) failed: Connection timed out
[1741399346.784912] [ohm:1406775:0]        ib_iface.c:1059 UCX  ERROR ibv_create_cq(cqe=256) failed: Connection timed out
[1741399346.789045] [ohm:1406736:0]        ib_iface.c:1059 UCX  ERROR ibv_create_cq(cqe=256) failed: Connection timed out
[1741399346.790987] [ohm:1406761:0]        ib_iface.c:1059 UCX  ERROR ibv_create_cq(cqe=256) failed: Connection timed out
[1741399346.798276] [ohm:1406729:0]        ib_iface.c:1059 UCX  ERROR ibv_create_cq(cqe=256) failed: Connection timed out
[1741399346.802068] [ohm:1406803:0]        ib_iface.c:1059 UCX  ERROR ibv_create_cq(cqe=256) failed: Connection timed out
[1741399346.802800] [ohm:1406760:0]        ib_iface.c:1059 UCX  ERROR ibv_create_cq(cqe=256) failed: Connection timed out
[1741399346.808258] [ohm:1406712:0]        ib_iface.c:1059 UCX  ERROR ibv_create_cq(cqe=256) failed: Connection timed out
[1741399346.808465] [ohm:1406784:0]        ib_iface.c:1059 UCX  ERROR ibv_create_cq(cqe=256) failed: Connection timed out
[1741399346.815942] [ohm:1406703:0]        ib_iface.c:1059 UCX  ERROR ibv_create_cq(cqe=256) failed: Connection timed out
[1741399346.818117] [ohm:1406840:0]        ib_iface.c:1059 UCX  ERROR ibv_create_cq(cqe=256) failed: Connection timed out
[1741399346.820998] [ohm:1406749:0]        ib_iface.c:1059 UCX  ERROR ibv_create_cq(cqe=256) failed: Connection timed out
[1741399346.821470] [ohm:1406788:0]        ib_iface.c:1059 UCX  ERROR ibv_create_cq(cqe=256) failed: Connection timed out
[1741399346.822608] [ohm:1406746:0]        ib_iface.c:1059 UCX  ERROR ibv_create_cq(cqe=256) failed: Connection timed out
[1741399346.825041] [ohm:1406836:0]        ib_iface.c:1059 UCX  ERROR ibv_create_cq(cqe=256) failed: Connection timed out
[1741399346.825906] [ohm:1406820:0]        ib_iface.c:1059 UCX  ERROR ibv_create_cq(cqe=256) failed: Connection timed out
[1741399346.826217] [ohm:1406810:0]        ib_iface.c:1059 UCX  ERROR ibv_create_cq(cqe=256) failed: Connection timed out
[1741399346.826349] [ohm:1406796:0]        ib_iface.c:1059 UCX  ERROR ibv_create_cq(cqe=256) failed: Connection timed out
[1741399346.827382] [ohm:1406705:0]        ib_iface.c:1059 UCX  ERROR ibv_create_cq(cqe=256) failed: Connection timed out
[1741399346.828341] [ohm:1406800:0]        ib_iface.c:1059 UCX  ERROR ibv_create_cq(cqe=256) failed: Connection timed out
[1741399346.829865] [ohm:1406845:0]        ib_iface.c:1059 UCX  ERROR ibv_create_cq(cqe=256) failed: Connection timed out
[1741399346.830721] [ohm:1406714:0]        ib_iface.c:1059 UCX  ERROR ibv_create_cq(cqe=256) failed: Connection timed out
[1741399346.832640] [ohm:1406807:0]        ib_iface.c:1059 UCX  ERROR ibv_create_cq(cqe=256) failed: Connection timed out
[1741399346.832890] [ohm:1406790:0]        ib_iface.c:1059 UCX  ERROR ibv_create_cq(cqe=256) failed: Connection timed out


           ************************************************************
           *        Program running with 64 parallel MPI-processes    *
           *              working on a common directory               *
           ************************************************************

-------------------------------------------------------------------------------------------
                                      ORCA LEAN-SCF
                              memory conserving SCF solver
-------------------------------------------------------------------------------------------

----------------------------------------D-I-I-S--------------------------------------------
Iteration    Energy (Eh)           Delta-E    RMSDP     MaxDP     DIISErr   Damp  Time(sec)
-------------------------------------------------------------------------------------------
               ***  Starting incremental Fock matrix formation  ***
    1    -908.1290510960598112     0.00e+00  1.87e-03  3.16e-01  1.49e-01  0.700   7.9
    2    -908.3940350679054063    -2.65e-01  1.46e-03  2.09e-01  7.03e-02  0.700   6.5
                               ***Turning on AO-DIIS***
    3    -908.5116239771946312    -1.18e-01  1.00e-03  1.28e-01  2.69e-02  0.700   5.9
    4    -908.5838085958171177    -7.22e-02  2.35e-03  2.61e-01  1.84e-02  0.000   5.9
    5    -908.7459456788305943    -1.62e-01  3.37e-04  1.02e-01  4.32e-03  0.000   5.8
                              *** Initializing SOSCF ***
---------------------------------------S-O-S-C-F--------------------------------------
Iteration    Energy (Eh)           Delta-E    RMSDP     MaxDP     MaxGrad    Time(sec)
--------------------------------------------------------------------------------------
    6    -908.7472639795014402    -1.32e-03  1.51e-04  5.46e-02  2.37e-03     6.7
               *** Restarting incremental Fock matrix formation ***
    7    -908.7478449683003419    -5.81e-04  1.88e-04  3.10e-02  4.29e-03     7.5
    8    -908.7482303301626416    -3.85e-04  2.35e-04  7.23e-02  2.25e-03     6.8
    9    -908.7483608774109598    -1.31e-04  9.26e-05  8.20e-03  9.96e-04     6.8
   10    -908.7484281633660430    -6.73e-05  3.75e-05  1.37e-02  4.43e-04     6.6
   11    -908.7484376439692824    -9.48e-06  7.89e-06  1.03e-03  1.30e-04     6.4
   12    -908.7484394920729756    -1.85e-06  6.16e-06  1.13e-03  1.35e-04     6.2
   13    -908.7484405312661693    -1.04e-06  4.12e-06  8.58e-04  3.65e-05     6.2
   14    -908.7484407059373552    -1.75e-07  1.36e-06  2.45e-04  1.92e-05     6.3
   15    -908.7484406816738556     2.43e-08  1.30e-06  2.63e-04  1.17e-05     5.9
   16    -908.7484407001193176    -1.84e-08  1.78e-06  5.00e-04  2.84e-06     5.8
   17    -908.7484407407050639    -4.06e-08  1.91e-06  3.79e-04  1.84e-06     5.7
                  *** Gradient check signals convergence ***

               *****************************************************
               *                     SUCCESS                       *
               *           SCF CONVERGED AFTER  17 CYCLES          *
               *****************************************************

Recomputing exchange energy using gridx3       ... done (    8.252 sec)
Old exchange energy                            :    -35.051501768 Eh
New exchange energy                            :    -35.051508271 Eh
Exchange energy change after final integration :     -0.000006503 Eh
Total energy after final integration           :   -908.748447244 Eh
             **** ENERGY FILE WAS UPDATED (orca.en.tmp) ****

----------------
TOTAL SCF ENERGY
----------------

Total Energy       :       -908.74844724405739 Eh          -24728.30241 eV

Components:
Nuclear Repulsion  :       1462.66959402296288 Eh           39801.26311 eV
Electronic Energy  :      -2371.41803476366795 Eh          -64529.56535 eV
One Electron Energy:      -4142.17799212236423 Eh         -112714.39345 eV
Two Electron Energy:       1770.75995735869628 Eh           48184.82811 eV

Virial components:
Potential Energy   :      -1814.79536739139303 Eh          -49383.09253 eV
Kinetic Energy     :        906.04692014733575 Eh           24654.79012 eV
Virial Ratio       :          2.00298166357244

DFT components:
N(Alpha)           :       67.000054336339 electrons
N(Beta)            :       65.000053543857 electrons
N(Total)           :      132.000107880196 electrons
E(XC)              :      -86.312677819017 Eh       

---------------
SCF CONVERGENCE
---------------

  Last Energy change         ...    4.0586e-08  Tolerance :   1.0000e-08
  Last MAX-Density change    ...    3.7947e-04  Tolerance :   1.0000e-07
  Last RMS-Density change    ...    1.9120e-06  Tolerance :   5.0000e-09
  Last DIIS Error            ...    2.3654e-03  Tolerance :   5.0000e-07
  Last Orbital Gradient      ...    1.8434e-06  Tolerance :   1.0000e-05
  Last Orbital Rotation      ...    7.0987e-06  Tolerance :   1.0000e-05


----------------------
UHF SPIN CONTAMINATION
----------------------

Warning: in a DFT calculation there is little theoretical justification to 
         calculate <S**2> as in Hartree-Fock theory. We will do it anyways
         but you should keep in mind that the values have only limited relevance

Expectation value of <S**2>     :     2.013238
Ideal value S*(S+1) for S=1.0   :     2.000000
Deviation                       :     0.013238

----------------
ORBITAL ENERGIES
----------------
                 SPIN UP ORBITALS
  NO   OCC          E(Eh)            E(eV) 
   0   1.0000     -19.336048      -526.1606 
   1   1.0000     -19.328801      -525.9634 
   2   1.0000     -19.326523      -525.9014 
   3   1.0000     -19.323502      -525.8192 
   4   1.0000     -14.569203      -396.4482 
   5   1.0000     -14.563490      -396.2927 
   6   1.0000     -14.563168      -396.2839 
   7   1.0000     -14.561743      -396.2452 
   8   1.0000     -10.511068      -286.0207 
   9   1.0000     -10.501362      -285.7566 
  10   1.0000     -10.483684      -285.2756 
  11   1.0000     -10.473571      -285.0004 
  12   1.0000     -10.450509      -284.3728 
  13   1.0000     -10.449765      -284.3526 
  14   1.0000     -10.423976      -283.6508 
  15   1.0000     -10.413588      -283.3681 
  16   1.0000     -10.373230      -282.2699 
  17   1.0000     -10.363749      -282.0119 
  18   1.0000      -1.235330       -33.6150 
  19   1.0000      -1.231789       -33.5187 
  20   1.0000      -1.200615       -32.6704 
  21   1.0000      -1.190607       -32.3981 
  22   1.0000      -1.130605       -30.7653 
  23   1.0000      -1.103031       -30.0150 
  24   1.0000      -1.073088       -29.2002 
  25   1.0000      -1.057991       -28.7894 
  26   1.0000      -0.983735       -26.7688 
  27   1.0000      -0.951536       -25.8926 
  28   1.0000      -0.889339       -24.2001 
  29   1.0000      -0.842534       -22.9265 
  30   1.0000      -0.827678       -22.5223 
  31   1.0000      -0.806070       -21.9343 
  32   1.0000      -0.792857       -21.5747 
  33   1.0000      -0.772227       -21.0134 
  34   1.0000      -0.702925       -19.1276 
  35   1.0000      -0.698257       -19.0005 
  36   1.0000      -0.690470       -18.7887 
  37   1.0000      -0.675682       -18.3862 
  38   1.0000      -0.663820       -18.0635 
  39   1.0000      -0.640343       -17.4246 
  40   1.0000      -0.625455       -17.0195 
  41   1.0000      -0.603197       -16.4138 
  42   1.0000      -0.600201       -16.3323 
  43   1.0000      -0.588334       -16.0094 
  44   1.0000      -0.575720       -15.6661 
  45   1.0000      -0.572281       -15.5726 
  46   1.0000      -0.570258       -15.5175 
  47   1.0000      -0.567316       -15.4374 
  48   1.0000      -0.562977       -15.3194 
  49   1.0000      -0.555403       -15.1133 
  50   1.0000      -0.548566       -14.9272 
  51   1.0000      -0.537185       -14.6175 
  52   1.0000      -0.531075       -14.4513 
  53   1.0000      -0.522668       -14.2225 
  54   1.0000      -0.508460       -13.8359 
  55   1.0000      -0.499612       -13.5951 
  56   1.0000      -0.493910       -13.4400 
  57   1.0000      -0.429458       -11.6861 
  58   1.0000      -0.424401       -11.5485 
  59   1.0000      -0.421952       -11.4819 
  60   1.0000      -0.408286       -11.1100 
  61   1.0000      -0.405309       -11.0290 
  62   1.0000      -0.398015       -10.8305 
  63   1.0000      -0.391586       -10.6556 
  64   1.0000      -0.386773       -10.5246 
  65   1.0000      -0.347617        -9.4591 
  66   1.0000      -0.323387        -8.7998 
  67   0.0000       0.005022         0.1367 
  68   0.0000       0.031034         0.8445 
  69   0.0000       0.034011         0.9255 
  70   0.0000       0.036048         0.9809 
  71   0.0000       0.054629         1.4865 
  72   0.0000       0.056905         1.5485 
  73   0.0000       0.060811         1.6548 
  74   0.0000       0.063990         1.7413 
  75   0.0000       0.064897         1.7659 
  76   0.0000       0.069908         1.9023 
  77   0.0000       0.075988         2.0677 

                 SPIN DOWN ORBITALS
  NO   OCC          E(Eh)            E(eV) 
   0   1.0000     -19.331996      -526.0503 
   1   1.0000     -19.328619      -525.9585 
   2   1.0000     -19.323443      -525.8176 
   3   1.0000     -19.322525      -525.7926 
   4   1.0000     -14.568920      -396.4405 
   5   1.0000     -14.563352      -396.2890 
   6   1.0000     -14.562313      -396.2607 
   7   1.0000     -14.561074      -396.2270 
   8   1.0000     -10.511114      -286.0220 
   9   1.0000     -10.501411      -285.7579 
  10   1.0000     -10.484652      -285.3019 
  11   1.0000     -10.474514      -285.0260 
  12   1.0000     -10.449849      -284.3548 
  13   1.0000     -10.449409      -284.3429 
  14   1.0000     -10.412591      -283.3410 
  15   1.0000     -10.402324      -283.0616 
  16   1.0000     -10.373853      -282.2869 
  17   1.0000     -10.364261      -282.0259 
  18   1.0000      -1.234543       -33.5936 
  19   1.0000      -1.231085       -33.4995 
  20   1.0000      -1.195279       -32.5252 
  21   1.0000      -1.185405       -32.2565 
  22   1.0000      -1.127962       -30.6934 
  23   1.0000      -1.100614       -29.9492 
  24   1.0000      -1.070912       -29.1410 
  25   1.0000      -1.056188       -28.7403 
  26   1.0000      -0.970432       -26.4068 
  27   1.0000      -0.934025       -25.4161 
  28   1.0000      -0.883575       -24.0433 
  29   1.0000      -0.838035       -22.8041 
  30   1.0000      -0.819433       -22.2979 
  31   1.0000      -0.801076       -21.7984 
  32   1.0000      -0.791196       -21.5296 
  33   1.0000      -0.770527       -20.9671 
  34   1.0000      -0.697488       -18.9796 
  35   1.0000      -0.692435       -18.8421 
  36   1.0000      -0.684143       -18.6165 
  37   1.0000      -0.669076       -18.2065 
  38   1.0000      -0.653322       -17.7778 
  39   1.0000      -0.635378       -17.2895 
  40   1.0000      -0.621078       -16.9004 
  41   1.0000      -0.598526       -16.2867 
  42   1.0000      -0.594006       -16.1637 
  43   1.0000      -0.584172       -15.8961 
  44   1.0000      -0.571200       -15.5431 
  45   1.0000      -0.566647       -15.4193 
  46   1.0000      -0.565805       -15.3963 
  47   1.0000      -0.560267       -15.2456 
  48   1.0000      -0.555594       -15.1185 
  49   1.0000      -0.547237       -14.8911 
  50   1.0000      -0.536522       -14.5995 
  51   1.0000      -0.528328       -14.3765 
  52   1.0000      -0.522134       -14.2080 
  53   1.0000      -0.514680       -14.0052 
  54   1.0000      -0.501700       -13.6519 
  55   1.0000      -0.493016       -13.4156 
  56   1.0000      -0.486288       -13.2326 
  57   1.0000      -0.425771       -11.5858 
  58   1.0000      -0.421230       -11.4622 
  59   1.0000      -0.414950       -11.2914 
  60   1.0000      -0.397018       -10.8034 
  61   1.0000      -0.390799       -10.6342 
  62   1.0000      -0.389582       -10.6011 
  63   1.0000      -0.386608       -10.5201 
  64   1.0000      -0.379089       -10.3155 
  65   0.0000      -0.065340        -1.7780 
  66   0.0000      -0.050573        -1.3762 
  67   0.0000       0.004572         0.1244 
  68   0.0000       0.030786         0.8377 
  69   0.0000       0.033448         0.9102 
  70   0.0000       0.035954         0.9784 
  71   0.0000       0.054545         1.4843 
  72   0.0000       0.058315         1.5868 
  73   0.0000       0.060860         1.6561 
  74   0.0000       0.064217         1.7474 
  75   0.0000       0.065041         1.7699 
*Only the first 10 virtual orbitals were printed.

                    ********************************
                    * MULLIKEN POPULATION ANALYSIS *
                    ********************************

--------------------------------------------
MULLIKEN ATOMIC CHARGES AND SPIN POPULATIONS
--------------------------------------------
   0 O :   -0.670656    0.149760
   1 O :   -0.686020    0.151364
   2 O :   -0.613282    0.001956
   3 O :   -0.616568    0.006129
   4 N :   -0.285244    0.027816
   5 N :   -0.253154    0.028758
   6 N :    0.090808    0.044657
   7 N :    0.113951    0.027826
   8 C :   -0.288104    0.501151
   9 C :   -0.357931    0.346026
  10 C :    0.438509    0.092894
  11 C :    0.977760    0.239762
  12 C :   -1.397799    0.010321
  13 C :   -1.630784    0.016292
  14 C :    0.686138    0.137009
  15 C :    0.535152    0.118635
  16 C :    0.327962   -0.011264
  17 C :    0.327639   -0.004725
  18 H :    0.468202   -0.001822
  19 H :    0.485231    0.029341
  20 H :    0.309847    0.000212
  21 H :    0.349806    0.018880
  22 H :    0.345508    0.025603
  23 H :    0.248291    0.017816
  24 H :    0.447536    0.026995
  25 H :    0.329251    0.006437
  26 H :    0.135196   -0.002353
  27 H :    0.067321   -0.001883
  28 H :    0.108613   -0.001183
  29 H :    0.006823   -0.002411
Sum of atomic charges         :   -0.0000000
Sum of atomic spin populations:    2.0000000

-----------------------------------------------------
MULLIKEN REDUCED ORBITAL CHARGES AND SPIN POPULATIONS
-----------------------------------------------------
CHARGE
  0 O s       :     4.083248  s :     4.083248
      pz      :     1.655478  p :     4.556556
      px      :     1.324935
      py      :     1.576143
      dz2     :     0.003551  d :     0.028986
      dxz     :     0.006110
      dyz     :     0.003641
      dx2y2   :     0.008169
      dxy     :     0.007516
      f0      :     0.000169  f :     0.001865
      f+1     :     0.000379
      f-1     :     0.000040
[...]
[1741399636.261541] [ohm:1409394:0]        ib_iface.c:1059 UCX  ERROR ibv_create_cq(cqe=256) failed: Connection timed out
[1741399636.261653] [ohm:1409301:0]        ib_iface.c:1059 UCX  ERROR ibv_create_cq(cqe=256) failed: Connection timed out
[1741399636.269505] [ohm:1409387:0]        ib_iface.c:1059 UCX  ERROR ibv_create_cq(cqe=256) failed: Connection timed out
[1741399636.270899] [ohm:1409335:0]        ib_iface.c:1059 UCX  ERROR ibv_create_cq(cqe=256) failed: Connection timed out
[1741399636.271223] [ohm:1409416:0]        ib_iface.c:1059 UCX  ERROR ibv_create_cq(cqe=256) failed: Connection timed out
[1741399636.271617] [ohm:1409370:0]        ib_iface.c:1059 UCX  ERROR ibv_create_cq(cqe=256) failed: Connection timed out
[1741399636.271996] [ohm:1409397:0]        ib_iface.c:1059 UCX  ERROR ibv_create_cq(cqe=256) failed: Connection timed out
[1741399636.273640] [ohm:1409348:0]        ib_iface.c:1059 UCX  ERROR ibv_create_cq(cqe=256) failed: Connection timed out
[1741399636.274399] [ohm:1409306:0]        ib_iface.c:1059 UCX  ERROR ibv_create_cq(cqe=256) failed: Connection timed out
[1741399636.275173] [ohm:1409324:0]        ib_iface.c:1059 UCX  ERROR ibv_create_cq(cqe=256) failed: Connection timed out


           ************************************************************
           *        Program running with 64 parallel MPI-processes    *
           *              working on a common directory               *
           ************************************************************

------------------------------------------------------------------------------
                              ORCA PROPERTY CALCULATIONS
------------------------------------------------------------------------------

GBWName                                 ... orca.gbw
Number of atoms                         ...     30
Number of basis functions               ...    882
Max core memory                         ...   1024 MB

Electric properties:
Dipole moment                           ... YES
Quadrupole moment                       ...  NO
Static polarizability (Dipole/Dipole)   ...  NO
Static polarizability (Dipole/Quad.)    ...  NO
Static polarizability (Quad./Quad.)     ...  NO
Static polarizability (Velocity)        ...  NO

Atomic electric properties:
Dipole moment                           ...  NO
Quadrupole moment                       ...  NO
Static polarizability                   ...  NO

Choice of electric origin               ... Center of mass
Position of electric origin             ...    -0.015009    -0.082504    -0.044782

General magnetic properties:
Magnetizability                         ...  NO

EPR properties:
g-Tensor (aka g-matrix)                 ...  NO
Zero-Field splitting spin-orbit         ...  NO
Zero-field splitting spin-spin          ...  NO
Hyperfine couplings                     ...  NO (   0 nuclei)
Quadrupole couplings                    ...  NO (   0 nuclei)
Contact density                         ...  NO (   0 nuclei)

NMR properties:
Chemical shifts                         ...  NO (   0 nuclei)
Spin-rotation constants                 ...  NO (   0 nuclei)
Spin-spin couplings                     ...  NO (   0 nuclei,    0 pairs)

Choice of magnetic origin               ... GIAO
Position of magnetic origin             ...     0.000000     0.000000     0.000000

Properties with geometric perturbations:
SCF Hessian                             ...  NO
IR spectrum                             ...  NO
VCD spectrum                            ...  NO
X-ray spectroscopy properties:
SCF XES/XAS/RIXS spectra                ...  NO


-------------
DIPOLE MOMENT
-------------

Method             : SCF
Type of density    : Electron Density
Multiplicity       :   3
Irrep              :   0
Energy             :  -908.7484472440573882 Eh
Relativity type    : 
Basis              : AO
                                X                 Y                 Z
Electronic contribution:     -6.645493656      -8.349725802      -4.682798249
Nuclear contribution   :      6.916676793       9.807600333       6.909448219
                        -----------------------------------------
Total Dipole Moment    :      0.271183137       1.457874531       2.226649969
                        -----------------------------------------
Magnitude (a.u.)       :      2.675239901
Magnitude (Debye)      :      6.799919430



--------------------
Rotational spectrum 
--------------------
 
Rotational constants in cm-1:             0.022016             0.013190             0.012771 
Rotational constants in MHz :           660.018937           395.431824           382.868942 

Dipole components along the rotational axes: 
x,y,z [a.u.] :     0.675765     0.924877    -2.417613 
x,y,z [Debye]:     1.717657     2.350851    -6.145084 

 

-------------
DIPOLE MOMENT
-------------

Method             : TDA/CIS
Type of density    : Electron Density
Level              : Relaxed density
State              :   2
Multiplicity       :   3
Irrep              :   0
Energy             :     0.0000000000000000 Eh
Relativity type    : 
Basis              : AO
                                X                 Y                 Z
Electronic contribution:     -6.702851521      -8.272545387      -4.612465201
Nuclear contribution   :      6.916676793       9.807600333       6.909448219
                        -----------------------------------------
Total Dipole Moment    :      0.213825272       1.535054946       2.296983018
                        -----------------------------------------
Magnitude (a.u.)       :      2.770964799
Magnitude (Debye)      :      7.043232785



--------------------
Rotational spectrum 
--------------------
 
Rotational constants in cm-1:             0.022016             0.013190             0.012771 
Rotational constants in MHz :           660.018937           395.431824           382.868942 

Dipole components along the rotational axes: 
x,y,z [a.u.] :     0.631627     0.979014    -2.514125 
x,y,z [Debye]:     1.605468     2.488456    -6.390398 

 

Dipole moment calculation done in   0.2 sec 

Maximum memory used throughout the entire PROP-calculation: 82.1 MB
[1741399638.740084] [ohm:1409635:0]        ib_iface.c:1059 UCX  ERROR ibv_create_cq(cqe=256) failed: Connection timed out
[1741399638.740135] [ohm:1409633:0]        ib_iface.c:1059 UCX  ERROR ibv_create_cq(cqe=256) failed: Connection timed out
[1741399638.804056] [ohm:1409634:0]        ib_iface.c:1059 UCX  ERROR ibv_create_cq(cqe=256) failed: Connection timed out
[1741399638.805438] [ohm:1409632:0]        ib_iface.c:1059 UCX  ERROR ibv_create_cq(cqe=256) failed: Connection timed out
[1741399638.816099] [ohm:1409636:0]        ib_iface.c:1059 UCX  ERROR ibv_create_cq(cqe=256) failed: Connection timed out
[1741399638.821973] [ohm:1409637:0]        ib_iface.c:1059 UCX  ERROR ibv_create_cq(cqe=256) failed: Connection timed out
[1741399638.832149] [ohm:1409644:0]        ib_iface.c:1059 UCX  ERROR ibv_create_cq(cqe=256) failed: Connection timed out
[1741399638.835456] [ohm:1409642:0]        ib_iface.c:1059 UCX  ERROR ibv_create_cq(cqe=256) failed: Connection timed out
[1741399638.846767] [ohm:1409638:0]        ib_iface.c:1059 UCX  ERROR ibv_create_cq(cqe=256) failed: Connection timed out
[1741399638.849195] [ohm:1409639:0]        ib_iface.c:1059 UCX  ERROR ibv_create_cq(cqe=256) failed: Connection timed out
[1741399638.850613] [ohm:1409658:0]        ib_iface.c:1059 UCX  ERROR ibv_create_cq(cqe=256) failed: Connection timed out
[1741399638.852162] [ohm:1409641:0]        ib_iface.c:1059 UCX  ERROR ibv_create_cq(cqe=256) failed: Connection timed out
[1741399638.852391] [ohm:1409671:0]        ib_iface.c:1059 UCX  ERROR ibv_create_cq(cqe=256) failed: Connection timed out
[1741399638.852726] [ohm:1409640:0]        ib_iface.c:1059 UCX  ERROR ibv_create_cq(cqe=256) failed: Connection timed out
[1741399638.862477] [ohm:1409663:0]        ib_iface.c:1059 UCX  ERROR ibv_create_cq(cqe=256) failed: Connection timed out
[1741399638.862812] [ohm:1409643:0]        ib_iface.c:1059 UCX  ERROR ibv_create_cq(cqe=256) failed: Connection timed out
[1741399638.897052] [ohm:1409692:0]        ib_iface.c:1059 UCX  ERROR ibv_create_cq(cqe=256) failed: Connection timed out
[1741399638.905520] [ohm:1409720:0]        ib_iface.c:1059 UCX  ERROR ibv_create_cq(cqe=256) failed: Connection timed out
[1741399638.909436] [ohm:1409662:0]        ib_iface.c:1059 UCX  ERROR ibv_create_cq(cqe=256) failed: Connection timed out
[1741399638.909795] [ohm:1409685:0]        ib_iface.c:1059 UCX  ERROR ibv_create_cq(cqe=256) failed: Connection timed out
[1741399638.913418] [ohm:1409657:0]        ib_iface.c:1059 UCX  ERROR ibv_create_cq(cqe=256) failed: Connection timed out
[1741399638.919241] [ohm:1409717:0]        ib_iface.c:1059 UCX  ERROR ibv_create_cq(cqe=256) failed: Connection timed out
[1741399638.933271] [ohm:1409689:0]        ib_iface.c:1059 UCX  ERROR ibv_create_cq(cqe=256) failed: Connection timed out
[1741399638.985693] [ohm:1409700:0]        ib_iface.c:1059 UCX  ERROR ibv_create_cq(cqe=256) failed: Connection timed out
[1741399638.995472] [ohm:1409716:0]        ib_iface.c:1059 UCX  ERROR ibv_create_cq(cqe=256) failed: Connection timed out
[1741399638.998035] [ohm:1409696:0]        ib_iface.c:1059 UCX  ERROR ibv_create_cq(cqe=256) failed: Connection timed out
[1741399638.999605] [ohm:1409713:0]        ib_iface.c:1059 UCX  ERROR ibv_create_cq(cqe=256) failed: Connection timed out
[1741399639.000128] [ohm:1409690:0]        ib_iface.c:1059 UCX  ERROR ibv_create_cq(cqe=256) failed: Connection timed out
[1741399639.001194] [ohm:1409707:0]        ib_iface.c:1059 UCX  ERROR ibv_create_cq(cqe=256) failed: Connection timed out
[1741399639.005787] [ohm:1409682:0]        ib_iface.c:1059 UCX  ERROR ibv_create_cq(cqe=256) failed: Connection timed out
[1741399639.013477] [ohm:1409731:0]        ib_iface.c:1059 UCX  ERROR ibv_create_cq(cqe=256) failed: Connection timed out
[1741399639.017472] [ohm:1409711:0]        ib_iface.c:1059 UCX  ERROR ibv_create_cq(cqe=256) failed: Connection timed out
[1741399639.019120] [ohm:1409748:0]        ib_iface.c:1059 UCX  ERROR ibv_create_cq(cqe=256) failed: Connection timed out
[1741399639.020200] [ohm:1409674:0]        ib_iface.c:1059 UCX  ERROR ibv_create_cq(cqe=256) failed: Connection timed out
[1741399639.022391] [ohm:1409679:0]        ib_iface.c:1059 UCX  ERROR ibv_create_cq(cqe=256) failed: Connection timed out
[1741399639.023649] [ohm:1409667:0]        ib_iface.c:1059 UCX  ERROR ibv_create_cq(cqe=256) failed: Connection timed out
[1741399639.028384] [ohm:1409755:0]        ib_iface.c:1059 UCX  ERROR ibv_create_cq(cqe=256) failed: Connection timed out
[1741399639.051351] [ohm:1409770:0]        ib_iface.c:1059 UCX  ERROR ibv_create_cq(cqe=256) failed: Connection timed out
[1741399639.053745] [ohm:1409768:0]        ib_iface.c:1059 UCX  ERROR ibv_create_cq(cqe=256) failed: Connection timed out
[1741399639.055050] [ohm:1409763:0]        ib_iface.c:1059 UCX  ERROR ibv_create_cq(cqe=256) failed: Connection timed out
[1741399639.058597] [ohm:1409773:0]        ib_iface.c:1059 UCX  ERROR ibv_create_cq(cqe=256) failed: Connection timed out
[1741399639.062654] [ohm:1409737:0]        ib_iface.c:1059 UCX  ERROR ibv_create_cq(cqe=256) failed: Connection timed out
[1741399639.063630] [ohm:1409669:0]        ib_iface.c:1059 UCX  ERROR ibv_create_cq(cqe=256) failed: Connection timed out
[1741399639.067712] [ohm:1409741:0]        ib_iface.c:1059 UCX  ERROR ibv_create_cq(cqe=256) failed: Connection timed out
[1741399639.075325] [ohm:1409656:0]        ib_iface.c:1059 UCX  ERROR ibv_create_cq(cqe=256) failed: Connection timed out
[1741399639.078128] [ohm:1409688:0]        ib_iface.c:1059 UCX  ERROR ibv_create_cq(cqe=256) failed: Connection timed out
[1741399639.078430] [ohm:1409757:0]        ib_iface.c:1059 UCX  ERROR ibv_create_cq(cqe=256) failed: Connection timed out
[1741399639.078424] [ohm:1409655:0]        ib_iface.c:1059 UCX  ERROR ibv_create_cq(cqe=256) failed: Connection timed out
[1741399639.081145] [ohm:1409678:0]        ib_iface.c:1059 UCX  ERROR ibv_create_cq(cqe=256) failed: Connection timed out
[1741399639.081367] [ohm:1409724:0]        ib_iface.c:1059 UCX  ERROR ibv_create_cq(cqe=256) failed: Connection timed out
[1741399639.082877] [ohm:1409686:0]        ib_iface.c:1059 UCX  ERROR ibv_create_cq(cqe=256) failed: Connection timed out
[1741399639.083616] [ohm:1409752:0]        ib_iface.c:1059 UCX  ERROR ibv_create_cq(cqe=256) failed: Connection timed out
[1741399639.083597] [ohm:1409704:0]        ib_iface.c:1059 UCX  ERROR ibv_create_cq(cqe=256) failed: Connection timed out
[1741399639.083698] [ohm:1409693:0]        ib_iface.c:1059 UCX  ERROR ibv_create_cq(cqe=256) failed: Connection timed out
[1741399639.088787] [ohm:1409698:0]        ib_iface.c:1059 UCX  ERROR ibv_create_cq(cqe=256) failed: Connection timed out
[1741399639.091406] [ohm:1409760:0]        ib_iface.c:1059 UCX  ERROR ibv_create_cq(cqe=256) failed: Connection timed out
[1741399639.093611] [ohm:1409727:0]        ib_iface.c:1059 UCX  ERROR ibv_create_cq(cqe=256) failed: Connection timed out
[1741399639.093801] [ohm:1409746:0]        ib_iface.c:1059 UCX  ERROR ibv_create_cq(cqe=256) failed: Connection timed out
[1741399639.093964] [ohm:1409775:0]        ib_iface.c:1059 UCX  ERROR ibv_create_cq(cqe=256) failed: Connection timed out
[1741399639.094466] [ohm:1409659:0]        ib_iface.c:1059 UCX  ERROR ibv_create_cq(cqe=256) failed: Connection timed out
[1741399639.101085] [ohm:1409691:0]        ib_iface.c:1059 UCX  ERROR ibv_create_cq(cqe=256) failed: Connection timed out
[1741399639.103243] [ohm:1409687:0]        ib_iface.c:1059 UCX  ERROR ibv_create_cq(cqe=256) failed: Connection timed out
[1741399639.103617] [ohm:1409735:0]        ib_iface.c:1059 UCX  ERROR ibv_create_cq(cqe=256) failed: Connection timed out
[1741399639.104196] [ohm:1409694:0]        ib_iface.c:1059 UCX  ERROR ibv_create_cq(cqe=256) failed: Connection timed out

--------------------------------
SUGGESTED CITATIONS FOR THIS RUN
--------------------------------

Below you find a list of papers that are relevant to this ORCA run
We neither can nor want to force you to cite these papers, but we appreciate if you do
You receive ORCA, which is the product of decades of hard work by many enthusiastic individuals, for free
The only thing we kindly ask in return is that you cite our papers,
We deeply appreciate it, if you show your appreciation for ORCA by not just citing the generic ORCA reference.

Please note that relegating all ORCA citations to the supporting information does *not* help us.
SI sections are not indexed - citations you put there will not count into any citation statistics
But we need these citations in order to attract the funding resources that allow us to do what we are doing

Therefore, if you are a happy ORCA user, please consider citing a few of the papers listed below in the main body of your paper

In addition to the list printed below, the program has created the file orca.bibtex that contains the list in bibtex format
You can import this file easily into all common literature databanks and citation aid programs


List of essential papers. We consider these as the minimum necessary citations

  1. Neese,F.
     Software update: the ORCA program system, version 5.0
     WIRES Comput. Molec. Sci., 2022 12(1)e1606
     doi.org/10.1002/wcms.1606

List of papers to cite with high priority. The work reported in these papers was absolutely
necessary for this run to complete.
Our perspective: the developers of density functionals and basis sets usually get cited in chemistry papers
Good! But without the algorithms to do something with them, the functionals or basis sets would not do anything.
Hence, in our opinion, the algorithm design and method developments papers are equally worthy of getting cited

  1. Neese,F.; Olbrich,G.
     Efficient use of the resolution of the identity approximation in time-dependent density functional calculations with hybrid density functionals
     Chem. Phys. Lett., 2002 362 170-178
     doi.org/10.1016/s0009-2614(02)01053-9
  2. Neese,F.
     An improvement of the resolution of the identity approximation for the formation of the Coulomb matrix
     J. Comp. Chem., 2003 24(14)1740-1747
     doi.org/10.1002/jcc.10318
  3. Neese,F.; Wennmohs,F.; Hansen,A.; Becker,U.
     Efficient, approximate and parallel Hartree-Fock and hybrid DFT calculations. A 'chain-of-spheres' algorithm for the Hartree-Fock exchange
     Chem. Phys., 2009 356(1-3)98-109
     doi.org/10.1016/j.chemphys.2008.10.036
  4. Petrenko,T.; Kossmann,S.; Neese,F.
     Efficient time-dependent density functional theory approximations for hybrid density functionals: Analytical gradients and parallelization
     J. Chem. Phys., 2011 134 054116
     doi.org/10.1063/1.3533441
  5. Helmich-Paris,B.; de Souza,B.; Neese,F.; Izsák,R.
     An improved chain of spheres for exchange algorithm
     J. Chem. Phys., 2021 155 104109
     doi.org/doi: 10.1063/5.0058766.
  6. Neese,F.
     The SHARK Integral Generation and Digestion System
     J. Comp. Chem., 2022  1-16
     doi.org/10.1002/jcc.26942
  7. Lehtola,S.; Steigemann,C.; Oliveira,M.; Marques,M.
     Recent developments in Libxc - A comprehensive library of functionals for density functional theory
     Software X, 2018 7 
     doi.org/10.1016/j.softx.2017.11.002
  8. Grimme,S.; Antony,J.; Ehrlich,S.; Krieg,H.
     A consistent and accurate ab initio parametrization of density functional dispersion correction (DFT-D) for the 94 elements H-Pu
     J. Chem. Phys., 2010 132 154104-XXXX
     doi.org/10.1063/1.3382344
  9. Grimme,S.; Ehrlich,S.; Goerigk,L.
     Effect of the damping function in dispersion corrected density functional theory
     J. Comput. Chem., 2011 32(7)1456-1465
     doi.org/10.1002/jcc.21759

List of suggested additional citations. These are papers that are important in the 'surrounding' of 
of this run, or papers that preceded the highly important papers. If you like your results we are grateful for a citation.

  1. Izsak,R.; Neese,F.
     An overlap fitted chain of spheres exchange method
     J. Chem. Phys., 2011 135 144105
     doi.org/10.1063/1.3646921
  2. Izsak,R.; Hansen,A.; Neese,F.
     The resolution of identity and chain of spheres approximations for the LPNO-CCSD singles Fock term
     Molec. Phys., 2012 110 2413-2417
     doi.org/10.1080/00268976.2012.687466
  3. Neese,F.
     The ORCA program system
     WIRES Comput. Molec. Sci., 2012 2(1)73-78
     doi.org/10.1002/wcms.81
  4. Izsak,R.; Neese,F.; Klopper,W.
     Robust fitting techniques in the chain of spheres approximation to the Fock exchange: The role of the complementary space
     J. Chem. Phys., 2013 139 
     doi.org/10.1063/1.4819264
  5. Neese,F.
     Software update: the ORCA program system, version 4.0
     WIRES Comput. Molec. Sci., 2018 8(1)1-6
     doi.org/10.1002/wcms.1327
  6. Neese,F.; Wennmohs,F.; Becker,U.; Riplinger,C.
     The ORCA quantum chemistry program package
     J. Chem. Phys., 2020 152 Art. No. L224108
     doi.org/10.1063/5.0004608

List of optional additional citations

  1. Neese,F.
     Approximate second-order SCF convergence for spin unrestricted wavefunctions
     Chem. Phys. Lett., 2000 325(1-3)93-98
     doi.org/10.1016/s0009-2614(00)00662-x

Timings for individual modules:

Sum of individual times          ...      303.089 sec (=   5.051 min)
Startup calculation              ...        6.591 sec (=   0.110 min)   2.2 %
SCF iterations                   ...      127.286 sec (=   2.121 min)  42.0 %
Property integrals               ...        4.392 sec (=   0.073 min)   1.4 %
Property calculations            ...        2.926 sec (=   0.049 min)   1.0 %
CIS module                       ...      161.894 sec (=   2.698 min)  53.4 %
                             ****ORCA TERMINATED NORMALLY****
TOTAL RUN TIME: 0 days 0 hours 5 minutes 5 seconds 246 msec
