30
Properties=species:S:1:pos:R:3:momenta:R:3:forces:R:3 Coordinates=T from=T ORCA-job=T orca=T E=T -908.770417928441=T energy=-24729.04915482527 free_energy=-24729.04915482527 stress="4.150310629882997e-06 -4.2276413028093625e-08 -1.6604924096024214e-06 -4.2276413028093625e-08 -1.749348224191474e-07 -1.654552203608846e-07 -1.6604924096024214e-06 -1.654552203608846e-07 1.6015261159649251e-06" pbc="F F F"
O        3.20169382       0.39464978      -0.91360211       0.09123486      -0.05646684      -0.19342398      -0.09376970       0.07002865       0.13854990
O       -0.64150728       1.53595211      -2.30912252      -0.04905714      -0.07240176      -0.05280405       0.02141404       0.02814845      -0.00597661
O        0.40894028      -3.07965828      -0.35311159       0.08921892      -0.12960844       0.29797783      -0.00308122       0.01452035      -0.04726742
O       -3.00779147      -1.77611275      -0.41746616      -0.10694367       0.03194106      -0.12977453      -0.08659598      -0.10677201       0.00752695
N        0.33762220      -1.43818832       1.21137063      -0.02078831      -0.08876923       0.14016690      -0.24937959      -0.25214085      -0.13272065
N       -2.15614632      -0.18286468       0.96485316       0.31296009      -0.18704468       0.00935347       0.19030958      -0.20833663       0.09725595
N        1.54885609      -1.15806395      -0.76493376      -0.14858759       0.12194635      -0.04178047       0.10660830       0.14546199       0.06102749
N       -1.48733157      -0.29353614      -1.25382840       0.06890362       0.03426934      -0.03948703      -0.18242600      -0.18954584       0.10866704
C        1.76430623       0.50356935       0.95378855      -0.68006848      -0.01959997       0.35185922      -2.54216258      -0.28783831       0.62332343
C       -0.86489240       1.61893150       0.04770846       0.05889787      -0.04991139      -0.00859543      -0.60744771      -0.51782666       0.05459746
C        0.38306482      -0.04049096       1.55629984       0.40113995       0.22610784      -0.16244935       1.40627377       0.05566177      -0.34852269
C       -1.07704413       0.72125488       1.23376756       0.35030493       0.02316422      -0.34265532       1.36641175       0.50368756      -0.80209149
C        2.48538719       1.57198108       1.64962107      -0.20441173       0.07887773      -0.16361401       0.27366449       0.17820031       0.03311851
C       -0.69080784       3.07000171       0.19447279       0.05350874       0.15442848       0.12136242       0.21605383       0.05765176       0.20323891
C        2.24611023      -0.04720883      -0.29450311      -0.08492856       0.02604552       0.26370221       0.08425008      -0.11579989       0.07135670
C       -0.96821515       1.00021802      -1.26513597      -0.04663676      -0.04800195       0.33239473      -0.02550397       0.24584354       0.23222779
C        0.72854228      -1.96850945       0.00268134      -0.04505215      -0.02083585       0.07189017      -0.07739498      -0.10428049       0.16070734
C       -2.27630081      -0.83576309      -0.23905719       0.00727741      -0.02548092      -0.32425986       0.08993884       0.13837636      -0.08339532
H        0.49772053       0.02002475       2.63999667       0.04245726       0.07873662      -0.03512073      -0.02292528       0.08282181      -0.06748555
H       -1.32814752       1.31238472       2.10686936       0.00520353      -0.05292493       0.00692988       0.07870913       0.00308975       0.06897325
H        3.47130684       1.73787817       1.20119092       0.03220547      -0.00759392      -0.03343666      -0.26396425      -0.05950475       0.10057592
H        1.92712929       2.51382079       1.60354104      -0.00350353      -0.02661429       0.02766736       0.07769073      -0.04419469      -0.00187062
H        2.58874686       1.34435277       2.71828107      -0.00921393      -0.00202198       0.00595297       0.01420283      -0.00044261      -0.13841142
H       -1.57363388       3.51684654       0.67171010      -0.00750159       0.05789155      -0.05705577       0.06416674      -0.07116855      -0.06391307
H        0.15139567       3.29141669       0.85454974      -0.01855307      -0.03895978       0.01066169      -0.05702096       0.10264585      -0.05705595
H       -0.52660516       3.53836495      -0.76562232       0.00989688      -0.02282453       0.03363796       0.04267656       0.05219519      -0.10531839
H       -0.29814095      -2.05129352       1.70858954      -0.07842707       0.02632973      -0.04901690       0.12512939       0.20050820      -0.17086869
H       -2.70238392      -0.57922936       1.71193897      -0.04540678      -0.00159616      -0.02243389       0.11895749       0.01067977      -0.04638782
H        1.90673138      -1.57138700      -1.61530603       0.04616653       0.05873428      -0.03211083      -0.08755757       0.02218744       0.10400406
H       -1.59466513      -0.74925750      -2.14669841      -0.02029569      -0.06781608       0.01446201       0.02277224       0.04614253       0.00613500
