
                                 *****************
                                 * O   R   C   A *
                                 *****************

                                            #,                                       
                                            ###                                      
                                            ####                                     
                                            #####                                    
                                            ######                                   
                                           ########,                                 
                                     ,,################,,,,,                         
                               ,,#################################,,                 
                          ,,##########################################,,             
                       ,#########################################, ''#####,          
                    ,#############################################,,   '####,        
                  ,##################################################,,,,####,       
                ,###########''''           ''''###############################       
              ,#####''   ,,,,##########,,,,          '''####'''          '####       
            ,##' ,,,,###########################,,,                        '##       
           ' ,,###''''                  '''############,,,                           
         ,,##''                                '''############,,,,        ,,,,,,###''
      ,#''                                            '''#######################'''  
     '                                                          ''''####''''         
             ,#######,   #######,   ,#######,      ##                                
            ,#'     '#,  ##    ##  ,#'     '#,    #''#        ,####,   ,####,        
            ##       ##  ##   ,#'  ##            #'  '#       #'       #'  '#        
            ##       ##  #######   ##           ,######,      #####,   #    #        
            '#,     ,#'  ##    ##  '#,     ,#' ,#      #,     #,   #   #,  ,#        
             '#######'   ##     ##  '#######'  #'      '#     '####' # '####'        



                #########################################################
                #                        -***-                          #
                #          Department of theory and spectroscopy        #
                #                                                       #
                #                      Frank Neese                      #
                #                                                       #
                #     Directorship, Architecture, Infrastructure        #
                #                    SHARK, DRIVERS                     #
                #        Core code/Algorithms in most modules           #
                #                                                       #
                #        Max Planck Institute fuer Kohlenforschung      #
                #                Kaiser Wilhelm Platz 1                 #
                #                 D-45470 Muelheim/Ruhr                 #
                #                      Germany                          #
                #                                                       #
                #                  All rights reserved                  #
                #                        -***-                          #
                #########################################################


                         Program Version 6.0.0  -   RELEASE  -


 With contributions from (in alphabetic order):
   Daniel Aravena         : Magnetic Suceptibility
   Michael Atanasov       : Ab Initio Ligand Field Theory (pilot matlab implementation)
   Alexander A. Auer      : GIAO ZORA, VPT2 properties, NMR spectrum
   Ute Becker             : All parallelization in ORCA, NUMFREQ, NUMCALC
   Giovanni Bistoni       : ED, misc. LED, open-shell LED, HFLD
   Martin Brehm           : Molecular dynamics
   Dmytro Bykov           : pre 5.0 version of the SCF Hessian
   Marcos Casanova-Páez   : Triplet and SCS-CIS(D). UHF-(DLPNO)-IP/EA/STEOM-CCSD. UHF-CVS-IP/STEOM-CCSD
   Vijay G. Chilkuri      : MRCI spin determinant printing, contributions to CSF-ICE
   Pauline Colinet        : FMM embedding
   Dipayan Datta          : RHF DLPNO-CCSD density
   Achintya Kumar Dutta   : EOM-CC, STEOM-CC
   Nicolas Foglia         : Exact transition moments, OPA infrastructure, MCD improvements
   Dmitry Ganyushin       : Spin-Orbit,Spin-Spin,Magnetic field MRCI
   Miquel Garcia          : C-PCM and meta-GGA Hessian, CCSD/C-PCM, Gaussian charge scheme
   Tiago L. C. Gouveia    : GS-ROHF, GS-ROCIS
   Yang Guo               : DLPNO-NEVPT2, F12-NEVPT2, CIM, IAO-localization
   Andreas Hansen         : Spin unrestricted coupled pair/coupled cluster methods
   Ingolf Harden          : AUTO-CI MPn and infrastructure 
   Benjamin Helmich-Paris : MC-RPA, TRAH-(SCF,CASSCF), AVAS, COSX integrals, SCF dyn. polar.
   Lee Huntington         : MR-EOM, pCC
   Robert Izsak           : Overlap fitted RIJCOSX, COSX-SCS-MP3, EOM
   Riya Kayal             : Wick's Theorem for AUTO-CI, AUTO-CI UHF-CCSDT
   Emily Kempfer          : AUTO-CI, RHF CISDT and CCSDT
   Christian Kollmar      : KDIIS, OOCD, Brueckner-CCSD(T), CCSD density, CASPT2, CASPT2-K, improved NEVPT2
   Axel Koslowski         : Symmetry handling
   Simone Kossmann        : Meta GGA functionals, TD-DFT gradient, OOMP2, (MP2 Hessian; deprecated post 5.0)
   Lucas Lang             : DCDCAS
   Marvin Lechner         : AUTO-CI (C++ implementation), FIC-MRCC
   Spencer Leger          : CASSCF response
   Dagmar Lenk            : GEPOL surface, SMD, ORCA-2-JSON
   Dimitrios Liakos       : Extrapolation schemes; Compound Job, initial MDCI parallelization
   Dimitrios Manganas     : Further ROCIS development; embedding schemes. LFT, Crystal Embedding
   Dimitrios Pantazis     : SARC Basis sets
   Anastasios Papadopoulos: AUTO-CI, single reference methods and gradients
   Taras Petrenko         : pre 6.0 DFT Hessian and TD-DFT gradient, (ASA, deprecated), ECA, 1-Electron XAS/XES, NRVS
   Peter Pinski           : DLPNO-MP2, DLPNO-MP2 Gradient
   Christoph Reimann      : Effective Core Potentials
   Marius Retegan         : Local ZFS, SOC
   Christoph Riplinger    : Optimizer, TS searches, QM/MM, DLPNO-CCSD(T), (RO)-DLPNO pert. Triples
   Michael Roemelt        : Original ROCIS implementation
   Masaaki Saitow         : Open-shell DLPNO-CCSD energy and density
   Barbara Sandhoefer     : DKH picture change effects
   Kantharuban Sivalingam : CASSCF convergence/infrastructure, NEVPT2 and variants, FIC-MRCI
   Bernardo de Souza      : ESD, SOC TD-DFT
   Georgi Stoychev        : AutoAux, RI-MP2 NMR, DLPNO-MP2 response, X2C
   Van Anh Tran           : RI-MP2 g-tensors
   Willem Van den Heuvel  : Paramagnetic NMR
   Zikuan Wang            : NOTCH, Electric field optimization 
   Frank Wennmohs         : Technical directorship and infrastructure
   Hang Xu                : AUTO-CI-Response properties 


 We gratefully acknowledge several colleagues who have allowed us to
 interface, adapt or use parts of their codes:
   Stefan Grimme, W. Hujo, H. Kruse, P. Pracht,  : VdW corrections, initial TS optimization,
                  C. Bannwarth, S. Ehlert,         DFT functionals, gCP, sTDA/sTD-DF
                  L. Wittmann, M. Mueller
   Ed Valeev, F. Pavosevic, A. Kumar             : LibInt (2-el integral package), F12 methods
   Garnet Chan, S. Sharma, J. Yang, R. Olivares  : DMRG
   Ulf Ekstrom                                   : XCFun DFT Library
   Mihaly Kallay                                 : mrcc  (arbitrary order and MRCC methods)
   Frank Weinhold                                : gennbo (NPA and NBO analysis)
   Simon Mueller                                 : openCOSMO-RS
   Christopher J. Cramer and Donald G. Truhlar   : smd solvation model
   Lars Goerigk                                  : TD-DFT with DH, B97 family of functionals
   V. Asgeirsson, H. Jonsson                     : NEB implementation
   FAccTs GmbH                                   : IRC, NEB, NEB-TS, DLPNO-Multilevel, CI-OPT
                                                   MM, QMMM, 2- and 3-layer-ONIOM, Crystal-QMMM,
                                                   LR-CPCM, SF, NACMEs, symmetry and pop. for TD-DFT,
                                                   nearIR, NL-DFT gradient (VV10), updates on ESD,
                                                   ML-optimized integration grids, MBIS, APM,
                                                   GOAT, DOCKER, SOLVATOR, interface openCOSMO-RS
   S Lehtola, MJT Oliveira, MAL Marques          : LibXC Library
   Liviu Ungur et al                             : ANISO software


 Your calculation uses the libint2 library for the computation of 2-el integrals
 For citations please refer to: http://libint.valeyev.net

 Your ORCA version has been built with support for libXC version: 6.2.2
 For citations please refer to: https://libxc.gitlab.io

 This ORCA versions uses:
   CBLAS   interface :  Fast vector & matrix operations
   LAPACKE interface :  Fast linear algebra routines
   SCALAPACK package :  Parallel linear algebra routines
   Shared memory     :  Shared parallel matrices
   BLAS/LAPACK       :  OpenBLAS 0.3.27  USE64BITINT DYNAMIC_ARCH NO_AFFINITY Zen SINGLE_THREADED
        Core in use  :  Zen
   Copyright (c) 2011-2014, The OpenBLAS Project


Your calculation utilizes the atom-pairwise dispersion correction
with the Becke-Johnson damping scheme (D3BJ)


Warning: RI is on but no J-basis has been assigned. Assigning Def2/J (nothing to worry about!)
================================================================================

----- Orbital basis set information -----
Your calculation utilizes the basis: def2-TZVPPD
   F. Weigend and R. Ahlrichs, Phys. Chem. Chem. Phys. 7, 3297 (2005).
   D. Rappoport and F. Furche, J. Chem. Phys. 133, 134105 (2010)
   D. Rappoport, J. Chem. Phys. 155, 124102 (2021).

----- AuxJ basis set information -----
Your calculation utilizes the auxiliary basis: def2/J
   F. Weigend, Phys. Chem. Chem. Phys. 8, 1057 (2006).

================================================================================
                                        WARNINGS
                       Please study these warnings very carefully!
================================================================================

Using LibXC functional ID 531 : wB97M-V exchange-correlation functional
[ 1]  N. Mardirossian and M. Head-Gordon.,  J. Chem. Phys. 144, 214110 (2016)
Using LibXC functional ID 531 : wB97M-V exchange-correlation functional
[ 1]  N. Mardirossian and M. Head-Gordon.,  J. Chem. Phys. 144, 214110 (2016)

WARNING: B97M-V or wB97M-V functional requested.
  ===> : libXC variant has now been activated.
         Any manually given DFX/HFX/RangeSep scaling parameters are IGNORED!

Your calculation utilizes LibXC
 by S Lehtola, C Steigemann, MJT Oliveira & MAL Marques
Please cite in your paper:
 S Lehtola, C Steigemann, MJT Oliveira & MAL Marques, SoftwareX, 7, (2018), 1.
   

INFO   : Checking CIS options ...

WARNING: CIS/ROCIS methods need fully converged wavefunctions
  ===> : Setting SCFConvForced true
         You can overwrite this default with %scf ConvForced false 


================================================================================
                                       INPUT FILE
================================================================================
NAME = orca.inp
|  1> ! ENGRAD wB97M-D3BJ def2-TZVPPD 
|  2> %pal nprocs 8 end%pal nprocs 16 end 
|  3> %tddft nroots 4 Iroot 1 end 
|  4> *xyz 0 1 
|  5> O   0.20822915343563 0.87343012534129 -0.00013092857529
|  6> C   0.72532194171495 -0.38842773146862 3.468928856e-05
|  7> C   -0.68990280496043 -0.49947430639899 -0.00010739772369
|  8> H   1.2653693946673 -0.68140458168275 0.900807941408
|  9> H   1.26539663573448 -0.68153141905718 -0.9006997276109
| 10> H   -1.23004774148826 -0.59891472425525 -0.92653011665096
| 11> H   -1.22968352738095 -0.59814695763746 0.92662553986427
| 12> *
| 13> 
| 14>                          ****END OF INPUT****
================================================================================

                     *******************************
                     * Energy+Gradient Calculation *
                     *******************************

---------------------------------
CARTESIAN COORDINATES (ANGSTROEM)
---------------------------------
  O      0.208229    0.873430   -0.000131
  C      0.725322   -0.388428    0.000035
  C     -0.689903   -0.499474   -0.000107
  H      1.265369   -0.681405    0.900808
  H      1.265397   -0.681531   -0.900700
  H     -1.230048   -0.598915   -0.926530
  H     -1.229684   -0.598147    0.926626

----------------------------
CARTESIAN COORDINATES (A.U.)
----------------------------
  NO LB      ZA    FRAG     MASS         X           Y           Z
   0 O     8.0000    0    15.999    0.393496    1.650544   -0.000247
   1 C     6.0000    0    12.011    1.370660   -0.734022    0.000066
   2 C     6.0000    0    12.011   -1.303727   -0.943870   -0.000203
   3 H     1.0000    0     1.008    2.391202   -1.287668    1.702280
   4 H     1.0000    0     1.008    2.391253   -1.287908   -1.702076
   5 H     1.0000    0     1.008   -2.324453   -1.131785   -1.750888
   6 H     1.0000    0     1.008   -2.323765   -1.130334    1.751068

--------------------------------
INTERNAL COORDINATES (ANGSTROEM)
--------------------------------
 O      0   0   0     0.000000000000     0.00000000     0.00000000
 C      1   0   0     1.363697264760     0.00000000     0.00000000
 C      2   1   0     1.419574741109    72.20338474     0.00000000
 H      2   1   3     1.090357344147   115.88333034   246.65781873
 H      2   1   3     1.090372842924   115.87761486   113.33159899
 H      3   2   1     1.076988395158   120.48446188    93.50831306
 H      3   2   1     1.077002069640   120.44646787   266.52772820

---------------------------
INTERNAL COORDINATES (A.U.)
---------------------------
 O      0   0   0     0.000000000000     0.00000000     0.00000000
 C      1   0   0     2.577014359973     0.00000000     0.00000000
 C      2   1   0     2.682607487328    72.20338474     0.00000000
 H      2   1   3     2.060476768548   115.88333034   246.65781873
 H      2   1   3     2.060506056991   115.87761486   113.33159899
 H      3   2   1     2.035213116260   120.48446188    93.50831306
 H      3   2   1     2.035238957287   120.44646787   266.52772820

---------------------
BASIS SET INFORMATION
---------------------
There are 3 groups of distinct atoms

 Group   1 Type O   : 12s7p3d1f contracted to 6s4p3d1f pattern {621111/4111/111/1}
 Group   2 Type C   : 12s6p3d1f contracted to 6s3p3d1f pattern {621111/411/111/1}
 Group   3 Type H   : 5s3p1d contracted to 3s3p1d pattern {311/111/1}

Atom   0O    basis set group =>   1
Atom   1C    basis set group =>   2
Atom   2C    basis set group =>   2
Atom   3H    basis set group =>   3
Atom   4H    basis set group =>   3
Atom   5H    basis set group =>   3
Atom   6H    basis set group =>   3
---------------------------------
AUXILIARY/J BASIS SET INFORMATION
---------------------------------
There are 3 groups of distinct atoms

 Group   1 Type O   : 12s5p4d2f1g contracted to 6s4p3d1f1g pattern {711111/2111/211/2/1}
 Group   2 Type C   : 12s5p4d2f1g contracted to 6s4p3d1f1g pattern {711111/2111/211/2/1}
 Group   3 Type H   : 5s2p1d contracted to 3s1p1d pattern {311/2/1}

Atom   0O    basis set group =>   1
Atom   1C    basis set group =>   2
Atom   2C    basis set group =>   2
Atom   3H    basis set group =>   3
Atom   4H    basis set group =>   3
Atom   5H    basis set group =>   3
Atom   6H    basis set group =>   3
[1741191073.092519] [ohm:190487:0]        ib_iface.c:1059 UCX  ERROR ibv_create_cq(cqe=256) failed: Connection timed out
[1741191073.115757] [ohm:190488:0]        ib_iface.c:1059 UCX  ERROR ibv_create_cq(cqe=256) failed: Connection timed out
[1741191073.116477] [ohm:190486:0]        ib_iface.c:1059 UCX  ERROR ibv_create_cq(cqe=256) failed: Connection timed out
[1741191073.119044] [ohm:190484:0]        ib_iface.c:1059 UCX  ERROR ibv_create_cq(cqe=256) failed: Connection timed out
[1741191073.120064] [ohm:190482:0]        ib_iface.c:1059 UCX  ERROR ibv_create_cq(cqe=256) failed: Connection timed out
[1741191073.123443] [ohm:190489:0]        ib_iface.c:1059 UCX  ERROR ibv_create_cq(cqe=256) failed: Connection timed out
[1741191073.123443] [ohm:190493:0]        ib_iface.c:1059 UCX  ERROR ibv_create_cq(cqe=256) failed: Connection timed out
[1741191073.123443] [ohm:190495:0]        ib_iface.c:1059 UCX  ERROR ibv_create_cq(cqe=256) failed: Connection timed out
[1741191073.123931] [ohm:190483:0]        ib_iface.c:1059 UCX  ERROR ibv_create_cq(cqe=256) failed: Connection timed out
[1741191073.125867] [ohm:190485:0]        ib_iface.c:1059 UCX  ERROR ibv_create_cq(cqe=256) failed: Connection timed out
[1741191073.125956] [ohm:190491:0]        ib_iface.c:1059 UCX  ERROR ibv_create_cq(cqe=256) failed: Connection timed out
[1741191073.127116] [ohm:190494:0]        ib_iface.c:1059 UCX  ERROR ibv_create_cq(cqe=256) failed: Connection timed out
[1741191073.131667] [ohm:190507:0]        ib_iface.c:1059 UCX  ERROR ibv_create_cq(cqe=256) failed: Connection timed out
[1741191073.138832] [ohm:190498:0]        ib_iface.c:1059 UCX  ERROR ibv_create_cq(cqe=256) failed: Connection timed out
[1741191073.139505] [ohm:190504:0]        ib_iface.c:1059 UCX  ERROR ibv_create_cq(cqe=256) failed: Connection timed out
[1741191073.145586] [ohm:190510:0]        ib_iface.c:1059 UCX  ERROR ibv_create_cq(cqe=256) failed: Connection timed out


           ************************************************************
           *        Program running with 16 parallel MPI-processes    *
           *              working on a common directory               *
           ************************************************************
------------------------------------------------------------------------------
                             ORCA STARTUP CALCULATIONS
                           -- RI-GTO INTEGRALS CHOSEN --
------------------------------------------------------------------------------
------------------------------------------------------------------------------
                   ___                                                        
                  /   \      - P O W E R E D   B Y -                         
                 /     \                                                     
                 |  |  |   _    _      __       _____    __    __             
                 |  |  |  | |  | |    /  \     |  _  \  |  |  /  |          
                  \  \/   | |  | |   /    \    | | | |  |  | /  /          
                 / \  \   | |__| |  /  /\  \   | |_| |  |  |/  /          
                |  |  |   |  __  | /  /__\  \  |    /   |      \           
                |  |  |   | |  | | |   __   |  |    \   |  |\   \          
                \     /   | |  | | |  |  |  |  | |\  \  |  | \   \       
                 \___/    |_|  |_| |__|  |__|  |_| \__\ |__|  \__/        
                                                                              
                      - O R C A' S   B I G   F R I E N D -                    
                                      &                                       
                       - I N T E G R A L  F E E D E R -                       
                                                                              
 v1 FN, 2020, v2 2021, v3 2022-2024                                           
------------------------------------------------------------------------------


----------------------
SHARK INTEGRAL PACKAGE
----------------------

Number of atoms                             ...      7
Number of basis functions                   ...    182
Number of shells                            ...     68
Maximum angular momentum                    ...      3
Integral batch strategy                     ... SHARK/LIBINT Hybrid
RI-J (if used) integral strategy            ... SPLIT-RIJ (Revised 2003 algorithm where possible)
Printlevel                                  ...      1
Contraction scheme used                     ... SEGMENTED contraction
Prescreening option                         ... SCHWARTZ
   Thresh                                   ... 2.500e-11
   Tcut                                     ... 2.500e-12
   Tpresel                                  ... 2.500e-12 
Coulomb Range Separation                    ... NOT USED
Exchange Range Separation                   ... Long Range
   Mu parameter                             ... 3.000e-01
   Scaling (regular/separated)              ... 1.500e-01 8.500e-01
Multipole approximations                    ... NOT USED
Finite Nucleus Model                        ... NOT USED
CABS basis                                  ... NOT available
Auxiliary Coulomb fitting basis             ... AVAILABLE
   # of basis functions in Aux-J            ...    191
   # of shells in Aux-J                     ...     65
   Maximum angular momentum in Aux-J        ...      4
Auxiliary J/K fitting basis                 ... NOT available
Auxiliary Correlation fitting basis         ... NOT available
Auxiliary 'external' fitting basis          ... NOT available

Checking pre-screening integrals            ... done (  0.0 sec) Dimension = 68
Check shell pair data                       ... done (  0.0 sec)
Shell pair information
Shell pair cut-off parameter TPreSel        ...   2.5e-12
Total number of shell pairs                 ...      2346
Shell pairs after pre-screening             ...      2342
Total number of primitive shell pairs       ...      5434
Primitive shell pairs kept                  ...      4922
          la=0 lb=0:    461 shell pairs
          la=1 lb=0:    660 shell pairs
          la=1 lb=1:    253 shell pairs
          la=2 lb=0:    390 shell pairs
          la=2 lb=1:    286 shell pairs
          la=2 lb=2:     91 shell pairs
          la=3 lb=0:     90 shell pairs
          la=3 lb=1:     66 shell pairs
          la=3 lb=2:     39 shell pairs
          la=3 lb=3:      6 shell pairs

Calculating one electron integrals          ... done (  0.0 sec)
Calculating RI/J V-Matrix + Cholesky decomp.... done (  0.0 sec)
Calculating Nuclear repulsion               ... done (  0.0 sec) ENN=     74.267047174536 Eh

Diagonalization of the overlap matrix:
Smallest eigenvalue                        ... 9.270e-06
Time for diagonalization                   ...    0.003 sec
Threshold for overlap eigenvalues          ... 1.000e-07
Number of eigenvalues below threshold      ... 0
Time for construction of square roots      ...    0.002 sec
Total time needed                          ...    0.005 sec

-------------------
DFT GRID GENERATION
-------------------

General Integration Accuracy     IntAcc      ... 4.388
Radial Grid Type                 RadialGrid  ... OptM3 with GC (2021)
Angular Grid (max. ang.)         AngularGrid ... 4 (Lebedev-302)
Angular grid pruning method      GridPruning ... 4 (adaptive)
Weight generation scheme         WeightScheme... mBecke (2022)
Basis function cutoff            BFCut       ... 1.0000e-11
Integration weight cutoff        WCut        ... 1.0000e-14
Partially contracted basis set               ... off
Rotationally invariant grid construction     ... off
Angular grids for H and He will be reduced by one unit
Diffuse basis detected: some atoms will have their outermost
                        angular grid increased by 1.

Total number of grid points                  ...    33073
Total number of batches                      ...      522
Average number of points per batch           ...       63
Average number of grid points per atom       ...     4725

--------------------
COSX GRID GENERATION
--------------------

GRIDX 1
-------
General Integration Accuracy     IntAcc      ... 3.816
Radial Grid Type                 RadialGrid  ... OptM3 with GC (2021)
Angular Grid (max. ang.)         AngularGrid ... 1 (Lebedev-50)
Angular grid pruning method      GridPruning ... 4 (adaptive)
Weight generation scheme         WeightScheme... mBecke (2022)
Basis function cutoff            BFCut       ... 1.0000e-11
Integration weight cutoff        WCut        ... 1.0000e-14
Partially contracted basis set               ... on
Rotationally invariant grid construction     ... off
Angular grids for H and He will be reduced by one unit
Diffuse basis detected: some atoms will have their outermost
                        angular grid increased by 1.

Total number of grid points                  ...     4169
Total number of batches                      ...       36
Average number of points per batch           ...      115
Average number of grid points per atom       ...      596
UseSFitting                                  ... on

GRIDX 2
-------
General Integration Accuracy     IntAcc      ... 4.020
Radial Grid Type                 RadialGrid  ... OptM3 with GC (2021)
Angular Grid (max. ang.)         AngularGrid ... 2 (Lebedev-110)
Angular grid pruning method      GridPruning ... 4 (adaptive)
Weight generation scheme         WeightScheme... mBecke (2022)
Basis function cutoff            BFCut       ... 1.0000e-11
Integration weight cutoff        WCut        ... 1.0000e-14
Partially contracted basis set               ... on
Rotationally invariant grid construction     ... off
Angular grids for H and He will be reduced by one unit
Diffuse basis detected: some atoms will have their outermost
                        angular grid increased by 1.

Total number of grid points                  ...    10241
Total number of batches                      ...       83
Average number of points per batch           ...      123
Average number of grid points per atom       ...     1463
UseSFitting                                  ... on

GRIDX 3
-------
General Integration Accuracy     IntAcc      ... 4.338
Radial Grid Type                 RadialGrid  ... OptM3 with GC (2021)
Angular Grid (max. ang.)         AngularGrid ... 3 (Lebedev-194)
Angular grid pruning method      GridPruning ... 4 (adaptive)
Weight generation scheme         WeightScheme... mBecke (2022)
Basis function cutoff            BFCut       ... 1.0000e-11
Integration weight cutoff        WCut        ... 1.0000e-14
Partially contracted basis set               ... on
Rotationally invariant grid construction     ... off
Angular grids for H and He will be reduced by one unit
Diffuse basis detected: some atoms will have their outermost
                        angular grid increased by 1.

Total number of grid points                  ...    23032
Total number of batches                      ...      184
Average number of points per batch           ...      125
Average number of grid points per atom       ...     3290
UseSFitting                                  ... on
Initializing property integral containers    ... done (  0.0 sec)

SHARK setup successfully completed in   0.4 seconds

Maximum memory used throughout the entire STARTUP-calculation: 13.8 MB
[1741191074.495920] [ohm:190568:0]        ib_iface.c:1059 UCX  ERROR ibv_create_cq(cqe=256) failed: Connection timed out
[1741191074.497930] [ohm:190570:0]        ib_iface.c:1059 UCX  ERROR ibv_create_cq(cqe=256) failed: Connection timed out
[1741191074.500663] [ohm:190565:0]        ib_iface.c:1059 UCX  ERROR ibv_create_cq(cqe=256) failed: Connection timed out
[1741191074.500729] [ohm:190569:0]        ib_iface.c:1059 UCX  ERROR ibv_create_cq(cqe=256) failed: Connection timed out
[1741191074.502688] [ohm:190567:0]        ib_iface.c:1059 UCX  ERROR ibv_create_cq(cqe=256) failed: Connection timed out
[1741191074.519900] [ohm:190573:0]        ib_iface.c:1059 UCX  ERROR ibv_create_cq(cqe=256) failed: Connection timed out
[1741191074.524096] [ohm:190571:0]        ib_iface.c:1059 UCX  ERROR ibv_create_cq(cqe=256) failed: Connection timed out
[1741191074.527031] [ohm:190578:0]        ib_iface.c:1059 UCX  ERROR ibv_create_cq(cqe=256) failed: Connection timed out
[1741191074.528262] [ohm:190575:0]        ib_iface.c:1059 UCX  ERROR ibv_create_cq(cqe=256) failed: Connection timed out
[1741191074.532916] [ohm:190566:0]        ib_iface.c:1059 UCX  ERROR ibv_create_cq(cqe=256) failed: Connection timed out
[1741191074.535016] [ohm:190580:0]        ib_iface.c:1059 UCX  ERROR ibv_create_cq(cqe=256) failed: Connection timed out
[1741191074.535046] [ohm:190577:0]        ib_iface.c:1059 UCX  ERROR ibv_create_cq(cqe=256) failed: Connection timed out
[1741191074.543313] [ohm:190572:0]        ib_iface.c:1059 UCX  ERROR ibv_create_cq(cqe=256) failed: Connection timed out
[1741191074.571240] [ohm:190583:0]        ib_iface.c:1059 UCX  ERROR ibv_create_cq(cqe=256) failed: Connection timed out
[1741191074.573693] [ohm:190592:0]        ib_iface.c:1059 UCX  ERROR ibv_create_cq(cqe=256) failed: Connection timed out
[1741191074.574796] [ohm:190589:0]        ib_iface.c:1059 UCX  ERROR ibv_create_cq(cqe=256) failed: Connection timed out


           ************************************************************
           *        Program running with 16 parallel MPI-processes    *
           *              working on a common directory               *
           ************************************************************
-------------------------------------------------------------------------------
                                 ORCA GUESS
                   Start orbitals & Density for SCF / CASSCF
-------------------------------------------------------------------------------

------------
SCF SETTINGS
------------
Hamiltonian:
 Density Functional     Method          .... DFT(GTOs)
  Functional kind                       .... Exchange-Correlation
  Functional name                       .... wB97M-V exchange-correlation functional
  Functional family                     .... Hybrid MGGA
  Functional refs                              
    [ 0] N. Mardirossian and M. Head-Gordon.,  J. Chem. Phys. 144, 214110 (2016), doi: 10.1063/1.4952647
  Fraction of HF Exchange (short range) .... 0.1500
  Fraction of HF Exchange (long range)  .... 1.0000
  Range separation parameter mu         .... 0.3000
  Functional external parameters        .... 17
    Parameter  0 _cx00      =  8.500000e-01 : u^00 coefficient for exchange
    Parameter  1 _cx01      =  1.007000e+00 : u^01 coefficient for exchange
    Parameter  2 _cx10      =  2.590000e-01 : u^10 coefficient for exchange
    Parameter  3 _css00     =  4.430000e-01 : u^00 coefficient for same-spin correlation
    Parameter  4 _css04     = -1.437000e+00 : u^04 coefficient for same-spin correlation
    Parameter  5 _css10     = -4.535000e+00 : u^10 coefficient for same-spin correlation
    Parameter  6 _css20     = -3.390000e+00 : u^20 coefficient for same-spin correlation
    Parameter  7 _css43     =  4.278000e+00 : u^43 coefficient for same-spin correlation
    Parameter  8 _cos00     =  1.000000e+00 : u^00 coefficient for opposite-spin correlation
    Parameter  9 _cos10     =  1.358000e+00 : u^10 coefficient for opposite-spin correlation
    Parameter 10 _cos20     =  2.924000e+00 : u^20 coefficient for opposite-spin correlation
    Parameter 11 _cos21     = -8.812000e+00 : u^21 coefficient for opposite-spin correlation
    Parameter 12 _cos60     = -1.390000e+00 : u^60 coefficient for opposite-spin correlation
    Parameter 13 _cos61     =  9.142000e+00 : u^61 coefficient for opposite-spin correlation
    Parameter 14 _alpha     =  1.000000e+00 : fraction of HF exchange
    Parameter 15 _beta      = -8.500000e-01 : fraction of short-range exchange
    Parameter 16 _omega     =  3.000000e-01 : range-separation constant
 Long-range corrected/Screened/Range-Separated Hybrid DFT is turned on
   Amount of maximum screened exact exchange              ....  0.850000
   Range separation parameter mu (erf(mu*r12)/r12)        ....  0.300000
 RI-approximation to the Coulomb term is turned on
   Number of AuxJ basis functions       .... 191
   RIJ-COSX (HFX calculated with COS-X)).... on


General Settings:
 Integral files         IntName         .... orca
 Hartree-Fock type      HFTyp           .... RHF
 Total Charge           Charge          ....    0
 Multiplicity           Mult            ....    1
 Number of Electrons    NEL             ....   24
 Basis Dimension        Dim             ....  182
 Nuclear Repulsion      ENuc            ....     74.2670471745 Eh

Convergence Acceleration:
 AO-DIIS                CNVDIIS         .... on
   Start iteration      DIISMaxIt       ....    12
   Startup error        DIISStart       ....  0.200000
   # of expansion vecs  DIISMaxEq       ....     5
   Bias factor          DIISBfac        ....   1.050
   Max. coefficient     DIISMaxC        ....  10.000
 MO-DIIS                CNVKDIIS        .... off
 Trust-Rad. Augm. Hess. CNVTRAH         .... auto
   Auto Start mean grad. ratio tolernc. ....  1.125000
   Auto Start start iteration           ....    50
   Auto Start num. interpolation iter.  ....    10
   Max. Number of Micro iterations      ....    24
   Max. Number of Macro iterations      .... Maxiter - #DIIS iter
   Number of Davidson start vectors     ....     2
   Converg. threshold    (grad. norm)   ....   1.000e-05
   Grad. Scal. Fac. for Micro threshold ....   0.100
   Minimum threshold for Micro iter.    ....   1.000e-02
   NR start threshold (gradient norm)   ....   1.000e-04
   Initial trust radius                 ....   0.400
   Minimum AH scaling param. (alpha)    ....   1.000
   Maximum AH scaling param. (alpha)    .... 1000.000
   Quad. conv. algorithm                .... NR
   White noise on init. David. guess    .... on
   Maximum white noise                  ....   0.010
   Pseudo random numbers                .... off
   Inactive MOs                         .... canonical
   Orbital update algorithm             .... Taylor
   Preconditioner                       .... Diag
   Full preconditioner red. dimension   ....   250
 SOSCF                  CNVSOSCF        .... on
   Start iteration      SOSCFMaxIt      ....   150
   Startup grad/error   SOSCFStart      ....  0.003300
   Hessian update       SOSCFHessUp     .... L-BFGS
 Level Shifting         CNVShift        .... on
   Level shift para.    LevelShift      ....    0.2500
   Turn off err/grad.   ShiftErr        ....    0.0010
 Zerner damping         CNVZerner       .... off
 Static damping         CNVDamp         .... on
   Fraction old density DampFac         ....    0.7000
   Max. Damping (<1)    DampMax         ....    0.9800
   Min. Damping (>=0)   DampMin         ....    0.0000
   Turn off err/grad.   DampErr         ....    0.1000

SCF Procedure:
 Maximum # iterations   MaxIter         ....   125
 SCF integral mode      SCFMode         .... Direct
   Integral package                     .... SHARK and LIBINT hybrid scheme
 Reset frequency        DirectResetFreq ....    20
 Integral Threshold     Thresh          ....  2.500e-11 Eh
 Primitive CutOff       TCut            ....  2.500e-12 Eh

Convergence Tolerance:
 Convergence Check Mode ConvCheckMode   .... Total+1el-Energy
 Convergence forced     ConvForced      .... 1
 Energy Change          TolE            ....  1.000e-08 Eh
 1-El. energy change                    ....  1.000e-05 Eh
 Orbital Gradient       TolG            ....  1.000e-05
 Orbital Rotation angle TolX            ....  1.000e-05
 DIIS Error             TolErr          ....  5.000e-07

------------------------------
INITIAL GUESS: MODEL POTENTIAL
------------------------------
Loading Hartree-Fock densities                     ... done
Calculating cut-offs                               ... done
Initializing the effective Hamiltonian             ... done
Setting up the integral package (SHARK)            ... done
Starting the Coulomb interaction                   ... done (   0.0 sec)
Making the grid                                    ... done (   0.0 sec)
Mapping shells                                     ... done
Starting the XC term evaluation                    ... done (   0.0 sec)
  promolecular density results
     # of electrons  =     23.997198559
     EX              =    -19.531030392
     EC              =     -0.779821995
     EX+EC           =    -20.310852388
Transforming the Hamiltonian                       ... done (   0.0 sec)
Diagonalizing the Hamiltonian                      ... done (   0.0 sec)
Back transforming the eigenvectors                 ... done (   0.0 sec)
Now organizing SCF variables                       ... done
                      ------------------
                      INITIAL GUESS DONE (   0.1 sec)
                      ------------------
             **** ENERGY FILE WAS UPDATED (orca.en.tmp) ****
Finished Guess after   0.7 sec
Maximum memory used throughout the entire GUESS-calculation: 9.7 MB
[1741191075.652950] [ohm:190652:0]        ib_iface.c:1059 UCX  ERROR ibv_create_cq(cqe=256) failed: Connection timed out
[1741191075.675327] [ohm:190648:0]        ib_iface.c:1059 UCX  ERROR ibv_create_cq(cqe=256) failed: Connection timed out
[1741191075.678683] [ohm:190650:0]        ib_iface.c:1059 UCX  ERROR ibv_create_cq(cqe=256) failed: Connection timed out
[1741191075.678857] [ohm:190659:0]        ib_iface.c:1059 UCX  ERROR ibv_create_cq(cqe=256) failed: Connection timed out
[1741191075.682046] [ohm:190654:0]        ib_iface.c:1059 UCX  ERROR ibv_create_cq(cqe=256) failed: Connection timed out
[1741191075.687693] [ohm:190649:0]        ib_iface.c:1059 UCX  ERROR ibv_create_cq(cqe=256) failed: Connection timed out
[1741191075.696469] [ohm:190656:0]        ib_iface.c:1059 UCX  ERROR ibv_create_cq(cqe=256) failed: Connection timed out
[1741191075.700803] [ohm:190653:0]        ib_iface.c:1059 UCX  ERROR ibv_create_cq(cqe=256) failed: Connection timed out
[1741191075.702023] [ohm:190651:0]        ib_iface.c:1059 UCX  ERROR ibv_create_cq(cqe=256) failed: Connection timed out
[1741191075.705753] [ohm:190674:0]        ib_iface.c:1059 UCX  ERROR ibv_create_cq(cqe=256) failed: Connection timed out
[1741191075.705921] [ohm:190655:0]        ib_iface.c:1059 UCX  ERROR ibv_create_cq(cqe=256) failed: Connection timed out
[1741191075.710316] [ohm:190666:0]        ib_iface.c:1059 UCX  ERROR ibv_create_cq(cqe=256) failed: Connection timed out
[1741191075.722952] [ohm:190671:0]        ib_iface.c:1059 UCX  ERROR ibv_create_cq(cqe=256) failed: Connection timed out
[1741191075.724422] [ohm:190657:0]        ib_iface.c:1059 UCX  ERROR ibv_create_cq(cqe=256) failed: Connection timed out
[1741191075.727399] [ohm:190662:0]        ib_iface.c:1059 UCX  ERROR ibv_create_cq(cqe=256) failed: Connection timed out
[1741191075.727386] [ohm:190677:0]        ib_iface.c:1059 UCX  ERROR ibv_create_cq(cqe=256) failed: Connection timed out


           ************************************************************
           *        Program running with 16 parallel MPI-processes    *
           *              working on a common directory               *
           ************************************************************

-------------------------------------------------------------------------------------------
                                      ORCA LEAN-SCF
                              memory conserving SCF solver
-------------------------------------------------------------------------------------------

----------------------------------------D-I-I-S--------------------------------------------
Iteration    Energy (Eh)           Delta-E    RMSDP     MaxDP     DIISErr   Damp  Time(sec)
-------------------------------------------------------------------------------------------
               ***  Starting incremental Fock matrix formation  ***
    1    -153.7916206644393355     0.00e+00  1.75e-03  4.01e-02  1.90e-01  0.700   0.4
    2    -153.8222539693092585    -3.06e-02  1.58e-03  4.70e-02  9.12e-02  0.700   0.2
                               ***Turning on AO-DIIS***
    3    -153.8370237896519939    -1.48e-02  1.29e-03  4.19e-02  4.48e-02  0.700   0.2
    4    -153.8460037351146639    -8.98e-03  3.30e-03  1.15e-01  2.81e-02  0.000   0.2
    5    -153.8659074335675427    -1.99e-02  2.60e-04  1.22e-02  5.22e-03  0.000   0.2
                              *** Initializing SOSCF ***
---------------------------------------S-O-S-C-F--------------------------------------
Iteration    Energy (Eh)           Delta-E    RMSDP     MaxDP     MaxGrad    Time(sec)
--------------------------------------------------------------------------------------
    6    -153.8659618540492602    -5.44e-05  1.07e-04  4.87e-03  1.70e-03     0.2
               *** Restarting incremental Fock matrix formation ***
    7    -153.8659763327605106    -1.45e-05  7.85e-05  2.78e-03  2.03e-04     0.3
    8    -153.8659781112415885    -1.78e-06  5.43e-05  1.72e-03  8.63e-05     0.3
    9    -153.8659782730908887    -1.62e-07  2.50e-05  8.99e-04  9.15e-05     0.3
   10    -153.8659785353231655    -2.62e-07  5.02e-06  1.90e-04  7.36e-06     0.3
   11    -153.8659785373536693    -2.03e-09  1.51e-06  9.14e-05  2.99e-06     0.3
                 **** Energy Check signals convergence ****

               *****************************************************
               *                     SUCCESS                       *
               *           SCF CONVERGED AFTER  11 CYCLES          *
               *****************************************************

Recomputing exchange energy using gridx3       ... done (    0.421 sec)
Old exchange energy                            :     -6.196943856 Eh
New exchange energy                            :     -6.196948347 Eh
Exchange energy change after final integration :     -0.000004491 Eh
Total energy after final integration           :   -153.865983029 Eh
             **** ENERGY FILE WAS UPDATED (orca.en.tmp) ****

----------------
TOTAL SCF ENERGY
----------------

Total Energy       :       -153.86598302860997 Eh           -4186.90626 eV

Components:
Nuclear Repulsion  :         74.26704717453565 Eh            2020.90909 eV
Electronic Energy  :       -228.13302571188927 Eh           -6207.81523 eV
One Electron Energy:       -355.13011591400090 Eh           -9663.58174 eV
Two Electron Energy:        126.99709020211161 Eh            3455.76651 eV

Virial components:
Potential Energy   :       -307.20863227617815 Eh           -8359.57188 eV
Kinetic Energy     :        153.34264924756820 Eh            4172.66562 eV
Virial Ratio       :          2.00341283904778

DFT components:
N(Alpha)           :       11.999991637967 electrons
N(Beta)            :       11.999991637967 electrons
N(Total)           :       23.999983275934 electrons
E(XC)              :      -14.753284937538 Eh       

---------------
SCF CONVERGENCE
---------------

  Last Energy change         ...    2.0305e-09  Tolerance :   1.0000e-08
  Last MAX-Density change    ...    9.1398e-05  Tolerance :   1.0000e-07
  Last RMS-Density change    ...    1.5122e-06  Tolerance :   5.0000e-09
  Last DIIS Error            ...    1.7006e-03  Tolerance :   5.0000e-07
  Last Orbital Gradient      ...    2.9913e-06  Tolerance :   1.0000e-05
  Last Orbital Rotation      ...    7.2661e-06  Tolerance :   1.0000e-05


----------------
ORBITAL ENERGIES
----------------

  NO   OCC          E(Eh)            E(eV) 
   0   2.0000     -19.347561      -526.4739 
   1   2.0000     -10.408277      -283.2236 
   2   2.0000     -10.396685      -282.9082 
   3   2.0000      -1.180069       -32.1113 
   4   2.0000      -0.831943       -22.6383 
   5   2.0000      -0.744058       -20.2468 
   6   2.0000      -0.628797       -17.1104 
   7   2.0000      -0.590752       -16.0752 
   8   2.0000      -0.499578       -13.5942 
   9   2.0000      -0.494676       -13.4608 
  10   2.0000      -0.419663       -11.4196 
  11   2.0000      -0.378324       -10.2947 
  12   0.0000       0.039645         1.0788 
  13   0.0000       0.056708         1.5431 
  14   0.0000       0.064535         1.7561 
  15   0.0000       0.077171         2.0999 
  16   0.0000       0.109253         2.9729 
  17   0.0000       0.118902         3.2355 
  18   0.0000       0.131095         3.5673 
  19   0.0000       0.140410         3.8208 
  20   0.0000       0.151096         4.1115 
  21   0.0000       0.167275         4.5518 
  22   0.0000       0.199036         5.4160 
*Only the first 10 virtual orbitals were printed.

                    ********************************
                    * MULLIKEN POPULATION ANALYSIS *
                    ********************************

-----------------------
MULLIKEN ATOMIC CHARGES
-----------------------
   0 O :   -0.411605
   1 C :   -0.113951
   2 C :   -0.254647
   3 H :    0.197196
   4 H :    0.197163
   5 H :    0.192881
   6 H :    0.192962
Sum of atomic charges:   -0.0000000

--------------------------------
MULLIKEN REDUCED ORBITAL CHARGES
--------------------------------
  0 O s       :     3.978794  s :     3.978794
      pz      :     1.871983  p :     4.414711
      px      :     1.380199
      py      :     1.162529
      dz2     :     0.004587  d :     0.016307
      dxz     :    -0.002741
      dyz     :    -0.000442
      dx2y2   :     0.006138
      dxy     :     0.008765
      f0      :     0.000197  f :     0.001792
      f+1     :     0.000138
      f-1     :     0.000413
      f+2     :     0.000108
      f-2     :     0.000119
      f+3     :     0.000424
      f-3     :     0.000394

  1 C s       :     3.234229  s :     3.234229
      pz      :     1.143886  p :     2.689940
      px      :     0.854947
      py      :     0.691107
      dz2     :    -0.005372  d :     0.176915
      dxz     :     0.026949
      dyz     :     0.086159
      dx2y2   :     0.035365
      dxy     :     0.033813
      f0      :     0.002051  f :     0.012867
      f+1     :     0.000881
      f-1     :     0.001018
      f+2     :     0.002031
      f-2     :     0.001591
      f+3     :     0.001510
      f-3     :     0.003785

  2 C s       :     3.357500  s :     3.357500
      pz      :     1.147568  p :     2.817705
      px      :     0.923236
      py      :     0.746901
      dz2     :     0.009658  d :     0.071557
      dxz     :     0.009167
      dyz     :     0.008768
      dx2y2   :     0.018587
      dxy     :     0.025377
      f0      :     0.001018  f :     0.007885
      f+1     :     0.000728
      f-1     :     0.000351
      f+2     :     0.001102
      f-2     :     0.000962
      f+3     :     0.001713
      f-3     :     0.002009

  3 H s       :     0.754103  s :     0.754103
      pz      :     0.025798  p :     0.046234
      px      :     0.013206
      py      :     0.007230
      dz2     :     0.000724  d :     0.002466
      dxz     :     0.000546
      dyz     :     0.000507
      dx2y2   :     0.000336
      dxy     :     0.000353

  4 H s       :     0.754146  s :     0.754146
      pz      :     0.025790  p :     0.046225
      px      :     0.013203
      py      :     0.007231
      dz2     :     0.000724  d :     0.002467
      dxz     :     0.000546
      dyz     :     0.000508
      dx2y2   :     0.000337
      dxy     :     0.000353

  5 H s       :     0.765833  s :     0.765833
      pz      :     0.014229  p :     0.038976
      px      :     0.010188
      py      :     0.014559
      dz2     :     0.000739  d :     0.002310
      dxz     :     0.000573
      dyz     :     0.000507
      dx2y2   :     0.000243
      dxy     :     0.000247

  6 H s       :     0.765728  s :     0.765728
      pz      :     0.014232  p :     0.038999
      px      :     0.010186
      py      :     0.014582
      dz2     :     0.000740  d :     0.002311
      dxz     :     0.000574
      dyz     :     0.000508
      dx2y2   :     0.000242
      dxy     :     0.000247



                     *******************************
                     * LOEWDIN POPULATION ANALYSIS *
                     *******************************

----------------------
LOEWDIN ATOMIC CHARGES
----------------------
   0 O :   -0.028186
   1 C :   -0.191009
   2 C :    0.170940
   3 H :    0.022740
   4 H :    0.022742
   5 H :    0.001391
   6 H :    0.001382

-------------------------------
LOEWDIN REDUCED ORBITAL CHARGES
-------------------------------
  0 O s       :     3.375726  s :     3.375726
      pz      :     1.677447  p :     4.274671
      px      :     1.292241
      py      :     1.304984
      dz2     :     0.030918  d :     0.372257
      dxz     :     0.037424
      dyz     :     0.092291
      dx2y2   :     0.098102
      dxy     :     0.113522
      f0      :     0.000525  f :     0.005533
      f+1     :     0.000197
      f-1     :     0.000866
      f+2     :     0.000347
      f-2     :     0.000625
      f+3     :     0.001126
      f-3     :     0.001848

  1 C s       :     2.641927  s :     2.641927
      pz      :     0.913523  p :     2.538846
      px      :     0.891366
      py      :     0.733956
      dz2     :     0.096646  d :     0.916362
      dxz     :     0.216096
      dyz     :     0.182097
      dx2y2   :     0.218894
      dxy     :     0.202629
      f0      :     0.011887  f :     0.093874
      f+1     :     0.007592
      f-1     :     0.009704
      f+2     :     0.014295
      f-2     :     0.007793
      f+3     :     0.013558
      f-3     :     0.029045

  2 C s       :     2.673936  s :     2.673936
      pz      :     0.949897  p :     2.496704
      px      :     0.923023
      py      :     0.623784
      dz2     :     0.083763  d :     0.608684
      dxz     :     0.209598
      dyz     :     0.064562
      dx2y2   :     0.135425
      dxy     :     0.115336
      f0      :     0.005981  f :     0.049736
      f+1     :     0.006685
      f-1     :     0.004690
      f+2     :     0.006961
      f-2     :     0.002804
      f+3     :     0.009494
      f-3     :     0.013121

  3 H s       :     0.704971  s :     0.704971
      pz      :     0.115720  p :     0.243063
      px      :     0.076800
      py      :     0.050543
      dz2     :     0.009024  d :     0.029226
      dxz     :     0.008113
      dyz     :     0.005985
      dx2y2   :     0.003293
      dxy     :     0.002810

  4 H s       :     0.704966  s :     0.704966
      pz      :     0.115710  p :     0.243066
      px      :     0.076804
      py      :     0.050551
      dz2     :     0.009023  d :     0.029225
      dxz     :     0.008112
      dyz     :     0.005985
      dx2y2   :     0.003294
      dxy     :     0.002811

  5 H s       :     0.710124  s :     0.710124
      pz      :     0.120904  p :     0.258326
      px      :     0.079762
      py      :     0.057659
      dz2     :     0.009916  d :     0.030159
      dxz     :     0.009408
      dyz     :     0.005731
      dx2y2   :     0.002820
      dxy     :     0.002285

  6 H s       :     0.710091  s :     0.710091
      pz      :     0.120932  p :     0.258366
      px      :     0.079758
      py      :     0.057676
      dz2     :     0.009923  d :     0.030162
      dxz     :     0.009408
      dyz     :     0.005733
      dx2y2   :     0.002815
      dxy     :     0.002282



                      *****************************
                      * MAYER POPULATION ANALYSIS *
                      *****************************

  NA   - Mulliken gross atomic population
  ZA   - Total nuclear charge
  QA   - Mulliken gross atomic charge
  VA   - Mayer's total valence
  BVA  - Mayer's bonded valence
  FA   - Mayer's free valence

  ATOM       NA         ZA         QA         VA         BVA        FA
  0 O      8.4116     8.0000    -0.4116     1.6619     1.6619    -0.0000
  1 C      6.1140     6.0000    -0.1140     3.5777     3.5777     0.0000
  2 C      6.2546     6.0000    -0.2546     3.5902     3.5902    -0.0000
  3 H      0.8028     1.0000     0.1972     1.0799     1.0799     0.0000
  4 H      0.8028     1.0000     0.1972     1.0799     1.0799    -0.0000
  5 H      0.8071     1.0000     0.1929     0.9928     0.9928    -0.0000
  6 H      0.8070     1.0000     0.1930     0.9928     0.9928    -0.0000

  Mayer bond orders larger than 0.100000
B(  0-O ,  1-C ) :   0.7322 B(  0-O ,  2-C ) :   0.8990 B(  1-C ,  2-C ) :   0.7993 
B(  1-C ,  3-H ) :   1.0444 B(  1-C ,  4-H ) :   1.0443 B(  2-C ,  5-H ) :   0.9862 
B(  2-C ,  6-H ) :   0.9863 

-------
TIMINGS
-------

Total SCF time: 0 days 0 hours 0 min 5 sec 

Total time                  ....       5.219 sec
Sum of individual times     ....       5.176 sec  ( 99.2%)

SCF preparation             ....       1.791 sec  ( 34.3%)
Fock matrix formation       ....       3.081 sec  ( 59.0%)
  Startup                   ....       0.013 sec  (  0.4% of F)
  Split-RI-J                ....       0.179 sec  (  5.8% of F)
  Chain of spheres X        ....       2.178 sec  ( 70.7% of F)
  XC integration            ....       0.647 sec  ( 21.0% of F)
    Basis function eval.    ....       0.076 sec  ( 11.7% of XC)
    Density eval.           ....       0.184 sec  ( 28.5% of XC)
    XC-Functional eval.     ....       0.028 sec  (  4.4% of XC)
    XC-Potential eval.      ....       0.276 sec  ( 42.8% of XC)
Diagonalization             ....       0.000 sec  (  0.0%)
Density matrix formation    ....       0.032 sec  (  0.6%)
Total Energy calculation    ....       0.024 sec  (  0.5%)
Population analysis         ....       0.026 sec  (  0.5%)
Orbital Transformation      ....       0.023 sec  (  0.4%)
Orbital Orthonormalization  ....       0.000 sec  (  0.0%)
DIIS solution               ....       0.148 sec  (  2.8%)
SOSCF solution              ....       0.049 sec  (  0.9%)
Finished LeanSCF after   5.2 sec

Maximum memory used throughout the entire LEANSCF-calculation: 13.5 MB
[1741191081.472216] [ohm:191073:0]        ib_iface.c:1059 UCX  ERROR ibv_create_cq(cqe=256) failed: Connection timed out
[1741191081.472802] [ohm:191079:0]        ib_iface.c:1059 UCX  ERROR ibv_create_cq(cqe=256) failed: Connection timed out
[1741191081.473837] [ohm:191071:0]        ib_iface.c:1059 UCX  ERROR ibv_create_cq(cqe=256) failed: Connection timed out
[1741191081.477044] [ohm:191072:0]        ib_iface.c:1059 UCX  ERROR ibv_create_cq(cqe=256) failed: Connection timed out
[1741191081.489127] [ohm:191066:0]        ib_iface.c:1059 UCX  ERROR ibv_create_cq(cqe=256) failed: Connection timed out
[1741191081.516362] [ohm:191075:0]        ib_iface.c:1059 UCX  ERROR ibv_create_cq(cqe=256) failed: Connection timed out
[1741191081.552022] [ohm:191082:0]        ib_iface.c:1059 UCX  ERROR ibv_create_cq(cqe=256) failed: Connection timed out
[1741191081.567300] [ohm:191086:0]        ib_iface.c:1059 UCX  ERROR ibv_create_cq(cqe=256) failed: Connection timed out
[1741191081.568752] [ohm:191083:0]        ib_iface.c:1059 UCX  ERROR ibv_create_cq(cqe=256) failed: Connection timed out
[1741191081.588750] [ohm:191119:0]        ib_iface.c:1059 UCX  ERROR ibv_create_cq(cqe=256) failed: Connection timed out
[1741191081.588916] [ohm:191090:0]        ib_iface.c:1059 UCX  ERROR ibv_create_cq(cqe=256) failed: Connection timed out
[1741191081.591790] [ohm:191100:0]        ib_iface.c:1059 UCX  ERROR ibv_create_cq(cqe=256) failed: Connection timed out
[1741191081.600771] [ohm:191084:0]        ib_iface.c:1059 UCX  ERROR ibv_create_cq(cqe=256) failed: Connection timed out
[1741191081.602504] [ohm:191107:0]        ib_iface.c:1059 UCX  ERROR ibv_create_cq(cqe=256) failed: Connection timed out
[1741191081.606403] [ohm:191088:0]        ib_iface.c:1059 UCX  ERROR ibv_create_cq(cqe=256) failed: Connection timed out
[1741191081.612852] [ohm:191095:0]        ib_iface.c:1059 UCX  ERROR ibv_create_cq(cqe=256) failed: Connection timed out


           ************************************************************
           *        Program running with 16 parallel MPI-processes    *
           *              working on a common directory               *
           ************************************************************

------------------------------------------------------------------------------
                         ORCA PROPERTY INTEGRAL CALCULATIONS
------------------------------------------------------------------------------

GBWName                                   ... orca.gbw
Number of atoms                           ...      7
Number of basis functions                 ...    182
Max core memory                           ...   1024 MB

Dipole integrals                          ... YES
Quadrupole integrals                      ...  NO
Linear momentum integrals                 ... YES
Angular momentum integrals                ... YES
Higher moments length integrals           ...  NO
Higher moments velocity integrals         ...  NO
Kinetic energy integrals                  ...  NO
GIAO right hand sides                     ...  NO
GIAO dipole derivative integrals          ...  NO
SOC integrals                             ...  NO
EPR diamagnetic integrals (GIAO)          ...  NO
EPR gauge integrals                       ...  NO
Field gradient integrals                  ...  NO (   0 nuclei)
Spin-dipole/Fermi contact integrals       ...  NO (   0 nuclei)
Contact density integrals                 ...  NO (   0 nuclei)
Nucleus-orbit integrals                   ...  NO (   0 nuclei)
Geometric perturbations                   ...  NO (   7 nuclei)

Choice of electric origin   ... Center of mass
Position of electric origin ... (  0.1642,  0.0313, -0.0001) 
Choice of magnetic origin   ... GIAO
Position of magnetic origin ... (  0.0000,  0.0000,  0.0000) 

Calculating integrals                     ... Electric Dipole (Length)     done (  0.0 sec)
Calculating integrals                     ... Linear Momentum              done (  0.0 sec)
Calculating integrals                     ... Angular Momentum  (ElOri)    done (  0.0 sec)

Property integrals calculated in   0.0 sec

Maximum memory used throughout the entire PROPINT-calculation: 10.1 MB
[1741191082.809214] [ohm:191477:0]        ib_iface.c:1059 UCX  ERROR ibv_create_cq(cqe=256) failed: Connection timed out
[1741191082.812490] [ohm:191506:0]        ib_iface.c:1059 UCX  ERROR ibv_create_cq(cqe=256) failed: Connection timed out
[1741191082.820453] [ohm:191481:0]        ib_iface.c:1059 UCX  ERROR ibv_create_cq(cqe=256) failed: Connection timed out
[1741191082.859812] [ohm:191479:0]        ib_iface.c:1059 UCX  ERROR ibv_create_cq(cqe=256) failed: Connection timed out
[1741191082.861835] [ohm:191492:0]        ib_iface.c:1059 UCX  ERROR ibv_create_cq(cqe=256) failed: Connection timed out
[1741191082.862327] [ohm:191478:0]        ib_iface.c:1059 UCX  ERROR ibv_create_cq(cqe=256) failed: Connection timed out
[1741191082.862414] [ohm:191482:0]        ib_iface.c:1059 UCX  ERROR ibv_create_cq(cqe=256) failed: Connection timed out
[1741191082.862509] [ohm:191503:0]        ib_iface.c:1059 UCX  ERROR ibv_create_cq(cqe=256) failed: Connection timed out
[1741191082.862655] [ohm:191474:0]        ib_iface.c:1059 UCX  ERROR ibv_create_cq(cqe=256) failed: Connection timed out
[1741191082.862715] [ohm:191480:0]        ib_iface.c:1059 UCX  ERROR ibv_create_cq(cqe=256) failed: Connection timed out
[1741191082.864941] [ohm:191475:0]        ib_iface.c:1059 UCX  ERROR ibv_create_cq(cqe=256) failed: Connection timed out
[1741191082.865230] [ohm:191488:0]        ib_iface.c:1059 UCX  ERROR ibv_create_cq(cqe=256) failed: Connection timed out
[1741191082.865250] [ohm:191499:0]        ib_iface.c:1059 UCX  ERROR ibv_create_cq(cqe=256) failed: Connection timed out
[1741191082.865252] [ohm:191483:0]        ib_iface.c:1059 UCX  ERROR ibv_create_cq(cqe=256) failed: Connection timed out
[1741191082.865889] [ohm:191486:0]        ib_iface.c:1059 UCX  ERROR ibv_create_cq(cqe=256) failed: Connection timed out
[1741191082.865983] [ohm:191476:0]        ib_iface.c:1059 UCX  ERROR ibv_create_cq(cqe=256) failed: Connection timed out


           ************************************************************
           *        Program running with 16 parallel MPI-processes    *
           *              working on a common directory               *
           ************************************************************
------------------------------------------------------------------------------
                        ORCA TD-DFT/TDA CALCULATION
------------------------------------------------------------------------------

Input orbitals are from        ... orca.gbw
CI-vector output               ... orca.cis
Solver                         ... FN-2001
Tamm-Dancoff approximation     ... operative
CIS-Integral strategy          ... AO-integrals
Integral handling              ... AO integral Direct
Max. core memory used          ... 512 MB
Reference state                ... RHF
Generation of triplets         ... off
Follow IRoot                   ... off
Number of operators            ... 1
Orbital ranges used for CIS calculation:
 Operator 0:  Orbitals   3... 11  to  12...181
XAS localization array:
 Operator 0:  Orbitals  -1... -1

-------------------
XC-INTEGRATION GRID
-------------------

General Integration Accuracy     IntAcc      ... 3.467
Radial Grid Type                 RadialGrid  ... OptM3 with GC (2021)
Angular Grid (max. ang.)         AngularGrid ... 1 (Lebedev-50)
Angular grid pruning method      GridPruning ... 4 (adaptive)
Weight generation scheme         WeightScheme... mBecke (2022)
Basis function cutoff            BFCut       ... 1.0000e-11
Integration weight cutoff        WCut        ... 1.0000e-14
Partially contracted basis set               ... off
Rotationally invariant grid construction     ... off
Angular grids for H and He will be reduced by one unit
Diffuse basis detected: some atoms will have their outermost
                        angular grid increased by 1.

Total number of grid points                  ...     4736
Total number of batches                      ...       77
Average number of points per batch           ...       61
Average number of grid points per atom       ...      677

---------------------
COSX-INTEGRATION GRID
---------------------

General Integration Accuracy     IntAcc      ... 3.067
Radial Grid Type                 RadialGrid  ... OptM3 with GC (2021)
Angular Grid (max. ang.)         AngularGrid ... 1 (Lebedev-50)
Angular grid pruning method      GridPruning ... 4 (adaptive)
Weight generation scheme         WeightScheme... mBecke (2022)
Basis function cutoff            BFCut       ... 1.0000e-11
Integration weight cutoff        WCut        ... 1.0000e-14
Partially contracted basis set               ... on
Rotationally invariant grid construction     ... off
Angular grids for H and He will be reduced by one unit
Diffuse basis detected: some atoms will have their outermost
                        angular grid increased by 1.

Total number of grid points                  ...     2153
Total number of batches                      ...       22
Average number of points per batch           ...       97
Average number of grid points per atom       ...      308

---------------
TD-DFT XC SETUP
---------------

DFT calculation                         ... on
Name of the grid file                   ... orca.grid_cis.tmp
RI-approximation                        ... on
Aux-basis dimension                     ... 0
Functional (TD-DFT)
  Functional kind                       .... Exchange-Correlation
  Functional name                       .... wB97M-V exchange-correlation functional
  Functional family                     .... Hybrid MGGA
  Functional refs                              
    [ 0] N. Mardirossian and M. Head-Gordon.,  J. Chem. Phys. 144, 214110 (2016), doi: 10.1063/1.4952647
  Fraction of HF Exchange (short range) .... 0.1500
  Fraction of HF Exchange (long range)  .... 1.0000
  Range separation parameter mu         .... 0.3000
  Functional external parameters        .... 17
    Parameter  0 _cx00      =  8.500000e-01 : u^00 coefficient for exchange
    Parameter  1 _cx01      =  1.007000e+00 : u^01 coefficient for exchange
    Parameter  2 _cx10      =  2.590000e-01 : u^10 coefficient for exchange
    Parameter  3 _css00     =  4.430000e-01 : u^00 coefficient for same-spin correlation
    Parameter  4 _css04     = -1.437000e+00 : u^04 coefficient for same-spin correlation
    Parameter  5 _css10     = -4.535000e+00 : u^10 coefficient for same-spin correlation
    Parameter  6 _css20     = -3.390000e+00 : u^20 coefficient for same-spin correlation
    Parameter  7 _css43     =  4.278000e+00 : u^43 coefficient for same-spin correlation
    Parameter  8 _cos00     =  1.000000e+00 : u^00 coefficient for opposite-spin correlation
    Parameter  9 _cos10     =  1.358000e+00 : u^10 coefficient for opposite-spin correlation
    Parameter 10 _cos20     =  2.924000e+00 : u^20 coefficient for opposite-spin correlation
    Parameter 11 _cos21     = -8.812000e+00 : u^21 coefficient for opposite-spin correlation
    Parameter 12 _cos60     = -1.390000e+00 : u^60 coefficient for opposite-spin correlation
    Parameter 13 _cos61     =  9.142000e+00 : u^61 coefficient for opposite-spin correlation
    Parameter 14 _alpha     =  1.000000e+00 : fraction of HF exchange
    Parameter 15 _beta      = -8.500000e-01 : fraction of short-range exchange
    Parameter 16 _omega     =  3.000000e-01 : range-separation constant
Hybrid DFT                              ... on
   Exchange mixing (TD-DFT)             ...  0.150
   GGA exch. scaling (TD-DFT)           ...  0.000
   GGA corr. scaling (TD-DFT)           ...  1.000
Range-Separated Exchange                ... on
   Range Range separation parameter mu  .... 0.300
   Max. amount of RS exchange (TD-DFT)  ...  0.850

Building densities             ... done
Calculating rho(r) on the grid ... done
Building xc-kernel on the grid ... done
                    *** TD-DFT CALCULATION INITIALIZED ***

------------------------
DAVIDSON-DIAGONALIZATION
------------------------

Dimension of the eigenvalue problem            ...   1530
Number of roots to be determined               ...      4
Maximum size of the expansion space            ...     40
Maximum number of iterations                   ...    100
Convergence tolerance for the residual         ...    2.500e-07
Convergence tolerance for the energies         ...    2.500e-07
Orthogonality tolerance                        ...    1.000e-14
Level Shift                                    ...    0.000e+00
Constructing the preconditioner                ... o.k.
Building the initial guess                     ... o.k.
Number of trial vectors determined             ...     40


                       ****Iteration    0****
   Time for iteration     :  TOTAL=0.4 TRAFO=0.0 RIJ=0.1 COSX=0.2 XC=0.1
   Size of expansion space: 12
   Lowest Energy          :     0.228267532740
   Maximum Energy change  :     0.295318017791 (vector 3)
   Maximum residual norm  :     0.004979057140

                       ****Iteration    1****
   Time for iteration     :  TOTAL=0.2 TRAFO=0.0 RIJ=0.0 COSX=0.1 XC=0.0
   Size of expansion space: 16
   Lowest Energy          :     0.214843847196
   Maximum Energy change  :     0.013423685544 (vector 0)
   Maximum residual norm  :     0.000950041528

                       ****Iteration    2****
   Time for iteration     :  TOTAL=0.2 TRAFO=0.0 RIJ=0.0 COSX=0.1 XC=0.0
   Size of expansion space: 20
   Lowest Energy          :     0.214194589702
   Maximum Energy change  :     0.000649257494 (vector 0)
   Maximum residual norm  :     0.000067198995

                       ****Iteration    3****
   Time for iteration     :  TOTAL=0.2 TRAFO=0.0 RIJ=0.0 COSX=0.1 XC=0.0
   Size of expansion space: 24
   Lowest Energy          :     0.214120637597
   Maximum Energy change  :     0.000073952105 (vector 0)
   Maximum residual norm  :     0.000009184320

                       ****Iteration    4****
   Time for iteration     :  TOTAL=0.2 TRAFO=0.0 RIJ=0.0 COSX=0.1 XC=0.0
   Size of expansion space: 28
   Lowest Energy          :     0.214112589639
   Maximum Energy change  :     0.000016587241 (vector 3)
   Maximum residual norm  :     0.000003496542

                       ****Iteration    5****
   Time for iteration     :  TOTAL=0.2 TRAFO=0.0 RIJ=0.0 COSX=0.1 XC=0.0
   Size of expansion space: 32
   Lowest Energy          :     0.214111907184
   Maximum Energy change  :     0.000007362568 (vector 3)
   Maximum residual norm  :     0.000001850238

                       ****Iteration    6****
   Time for iteration     :  TOTAL=0.2 TRAFO=0.0 RIJ=0.0 COSX=0.1 XC=0.0
   Size of expansion space: 36
   Lowest Energy          :     0.214111878841
   Maximum Energy change  :     0.000005376580 (vector 3)
   Maximum residual norm  :     0.000002318440

                       ****Iteration    7****
   Time for iteration     :  TOTAL=0.2 TRAFO=0.0 RIJ=0.0 COSX=0.1 XC=0.1
   Size of expansion space: 40
   Lowest Energy          :     0.214111877996
   Maximum Energy change  :     0.000004659666 (vector 3)
   Maximum residual norm  :     0.000001657762
   Rebuilding the expansion space

                       ****Iteration    8****
   Time for iteration     :  TOTAL=0.3 TRAFO=0.0 RIJ=0.1 COSX=0.2 XC=0.1
   Size of expansion space: 8
   Lowest Energy          :     0.214112326123
   Maximum Energy change  :     0.000003132653 (vector 3)
   Maximum residual norm  :     0.000000870951

                       ****Iteration    9****
   Time for iteration     :  TOTAL=0.2 TRAFO=0.0 RIJ=0.0 COSX=0.1 XC=0.0
   Size of expansion space: 12
   Lowest Energy          :     0.214112326120
   Maximum Energy change  :     0.000001071653 (vector 3)
   Maximum residual norm  :     0.000000203273

      *** CONVERGENCE OF RESIDUAL NORM REACHED ***

Storing the converged CI vectors               ... orca.cis1

                 *** DAVIDSON DONE ***

Total time for solving the CIS problem:     2.536sec

------------------------------------
TD-DFT/TDA EXCITED STATES (SINGLETS)
------------------------------------

the weight of the individual excitations are printed if larger than 1.0e-02

STATE  1:  E=   0.214112 au      5.826 eV    46992.2 cm**-1 <S**2> =   0.000000 Mult 1
    11a ->  12a  :     0.079174 (c= -0.28137886)
    11a ->  13a  :     0.269028 (c= -0.51867952)
    11a ->  14a  :     0.404739 (c=  0.63619103)
    11a ->  16a  :     0.093504 (c=  0.30578427)
    11a ->  19a  :     0.078298 (c= -0.27981834)
    11a ->  21a  :     0.023676 (c= -0.15386856)
    11a ->  23a  :     0.013119 (c=  0.11453632)
    11a ->  25a  :     0.013671 (c= -0.11692104)

STATE  2:  E=   0.259377 au      7.058 eV    56926.6 cm**-1 <S**2> =   0.000000 Mult 1
    11a ->  12a  :     0.709222 (c=  0.84215314)
    11a ->  13a  :     0.212576 (c= -0.46105992)
    11a ->  19a  :     0.034646 (c=  0.18613460)
    11a ->  29a  :     0.013271 (c=  0.11519917)

STATE  3:  E=   0.281939 au      7.672 eV    61878.4 cm**-1 <S**2> =   0.000000 Mult 1
    11a ->  12a  :     0.101292 (c=  0.31826435)
    11a ->  13a  :     0.404068 (c=  0.63566336)
    11a ->  14a  :     0.344935 (c=  0.58731130)
    11a ->  16a  :     0.051546 (c=  0.22703827)
    11a ->  17a  :     0.058021 (c=  0.24087478)

STATE  4:  E=   0.288369 au      7.847 eV    63289.6 cm**-1 <S**2> =   0.000000 Mult 1
    10a ->  12a  :     0.042266 (c= -0.20558660)
    11a ->  15a  :     0.915227 (c=  0.95667513)
    11a ->  31a  :     0.016177 (c=  0.12718897)


-----------------------------
TD-DFT/TDA-EXCITATION SPECTRA
-----------------------------

Center of mass = (  0.1642,  0.0313, -0.0001)
Generating CIS transition densities           ... done

----------------------------------------------------------------------------------------------------
                     ABSORPTION SPECTRUM VIA TRANSITION ELECTRIC DIPOLE MOMENTS    
----------------------------------------------------------------------------------------------------
     Transition      Energy     Energy  Wavelength fosc(D2)      D2        DX        DY        DZ   
                      (eV)      (cm-1)    (nm)                 (au**2)    (au)      (au)      (au)  
----------------------------------------------------------------------------------------------------
  0-1A  ->  1-1A    5.826293   46992.2   212.8   0.004825378   0.03380   0.00012   0.00000  -0.18386
  0-1A  ->  2-1A    7.057994   56926.6   175.7   0.008138606   0.04707  -0.00002   0.00001   0.21695
  0-1A  ->  3-1A    7.671944   61878.4   161.6   0.002150546   0.01144  -0.00012  -0.00012  -0.10697
  0-1A  ->  4-1A    7.846906   63289.6   158.0   0.037878569   0.19703  -0.26230   0.35809  -0.00003

----------------------------------------------------------------------------------------------------
                     ABSORPTION SPECTRUM VIA TRANSITION VELOCITY DIPOLE MOMENTS    
----------------------------------------------------------------------------------------------------
     Transition      Energy     Energy  Wavelength fosc(P2)      P2        PX        PY        PZ   
                      (eV)      (cm-1)    (nm)                 (au**2)    (au)      (au)      (au)  
----------------------------------------------------------------------------------------------------
  0-1A  ->  1-1A    5.826293   46992.2   212.8   0.015589380   0.00501  -0.00002   0.00001   0.07076
  0-1A  ->  2-1A    7.057994   56926.6   175.7   0.007300036   0.00284   0.00001  -0.00000  -0.05329
  0-1A  ->  3-1A    7.671944   61878.4   161.6   0.001950442   0.00082   0.00001   0.00002   0.02872
  0-1A  ->  4-1A    7.846906   63289.6   158.0   0.028159422   0.01218   0.05282  -0.09690   0.00002

------------------------------------------------------------------------------------------
                     CD SPECTRUM VIA TRANSITION ELECTRIC DIPOLE MOMENTS    
------------------------------------------------------------------------------------------
     Transition      Energy     Energy  Wavelength    R        MX        MY        MZ   
                      (eV)      (cm-1)    (nm)   (1e40*cgs)   (au)      (au)      (au)  
------------------------------------------------------------------------------------------
  0-1A  ->  1-1A    5.826293   46992.2   212.8   -0.01224   0.11523   0.17866  -0.00006
  0-1A  ->  2-1A    7.057994   56926.6   175.7    0.00122   0.29762   0.08464   0.00001
  0-1A  ->  3-1A    7.671944   61878.4   161.6   -0.00214  -0.00342   0.02543  -0.00007
  0-1A  ->  4-1A    7.846906   63289.6   158.0    0.00631   0.00005  -0.00000  -0.01474

------------------------------------------------------------------------------------------
                     CD SPECTRUM VIA TRANSITION VELOCITY DIPOLE MOMENTS    
------------------------------------------------------------------------------------------
     Transition      Energy     Energy  Wavelength    R        MX        MY        MZ   
                      (eV)      (cm-1)    (nm)   (1e40*cgs)   (au)      (au)      (au)  
------------------------------------------------------------------------------------------
  0-1A  ->  1-1A    5.826293   46992.2   212.8   -0.01105   0.11523   0.17866  -0.00006
  0-1A  ->  2-1A    7.057994   56926.6   175.7    0.00140   0.29762   0.08464   0.00001
  0-1A  ->  3-1A    7.671944   61878.4   161.6   -0.00243  -0.00342   0.02543  -0.00007
  0-1A  ->  4-1A    7.846906   63289.6   158.0    0.00407   0.00005  -0.00000  -0.01474

Total run time:        2.637 sec

           *** ORCA-CIS/TD-DFT FINISHED WITHOUT ERROR ***
-----------------------
CIS/TD-DFT TOTAL ENERGY
-----------------------

    E(SCF)  =   -153.865983029 Eh
    DE(CIS) =      0.214112326 Eh (Root  1)
    ----------------------------- ---------
    E(tot)  =   -153.651870702 Eh


------------------------
TD-DFT GRADIENT XC SETUP
------------------------

Building densities                     ... done
Calculating rho(r) on the grid         ... done
Building xc-kernel on the grid         ... done
Building xc 3rd derivative on the grid ... done
                *** TD-DFT GRADIENT CALCULATION INITIALIZED ***

--------------------------
TD-DFT/TDA RELAXED DENSITY
--------------------------

Reference wavefunction             ... RHF
State of interest                  ... 1
Basis dimension                    ... 182
DFT-XC contribution needed         ... YES
RI-approximation                   ... YES
Do Coulomb                         ... YES
Do Exchange                        ... YES
Need Hartree-Fock Exchange         ... YES
facj, facx                         ...  2.000, -0.150
Conventional                       ... NO
Range separation                   ... YES
Triplet state                      ... NO
Spin Flip                          ... NO
CIS-vectors being read from        ... orca.cis
 => Number of Vectors found: 4
 => Orbital Window: 3...11 -> 12...181

Reading the CIS file                     ... done
Norm of the CI vector                    ... 1.000000000
Making the CIS (pseudo)densities         ... done
Making operators G(D) and Q(T)           ... (SHARK-ok)done
Transforming the Fock operators          ... done
Making the frozen-core relaxed density   ... done
Constructing the G(H) operator           ... (SHARK-ok)done
Transforming the G(H) operator           ... done
Calculating the CIS Lagrangian           ... done
Solving the Z-vector equations           ... 

Using XC Grid                  ... (orca.grid_cpscf.tmp) 
Recalculating density on grid  ... (orca.grho_cpscf0.tmp) done
Calculating the xc-kernel      ... (orca.fxc_cpscf0.tmp) done

-------------------
SHARK CP-SCF DRIVER
-------------------

Dimension of the orbital basis          ...    182
Dimension of the CPSCF-problem          ...   2040
Number of operators                     ...      1
Max. number of iterations               ...    128
Convergence Tolerance                   ... 1.0e-04
Number of perturbations                 ...      1
Perturbation type                       ... REAL

----------------------------
POPLE LINEAR EQUATION SOLVER
----------------------------

  ITERATION   0:   ||err||_max =   1.3988e+00 (   0.2 sec)
  ITERATION   1:   ||err||_max =   4.5939e-02 (   0.1 sec)
  ITERATION   2:   ||err||_max =   1.1742e-02 (   0.1 sec)
  ITERATION   3:   ||err||_max =   2.7150e-03 (   0.1 sec)
  ITERATION   4:   ||err||_max =   8.5069e-04 (   0.2 sec)
  ITERATION   5:   ||err||_max =   2.3259e-04 (   0.2 sec)
  ITERATION   6:   ||err||_max =   4.7394e-05 (   0.2 sec)

Finalizing the relaxed density           ... done
Storing the relaxed density              ... done
Constructing the G(Z) operator           ... (SHARK-ok)done
Adding the XC terms                      ... done
Transforming the G(Z) operator           ... done
Making the W-matrix                      ... done
Finalizing the W-matrix                  ... done
Transforming the W-matrix                ... done
Nuc. rep. gradient        (SHARK) ... done (  0.0 sec)
HCore & Overlap gradient  (SHARK) ... done (  0.0 sec)
Split-RIJ-J gradient      (SHARK) ... done (  0.1 sec)
COSX-gradient                     ... done (  2.1 sec)
Dispersion correction             ... done (  0.0 sec)

-------------------
DISPERSION GRADIENT
-------------------

   1   O   :    0.000022229    0.000143696   -0.000000007
   2   C   :    0.000100484    0.000005236    0.000000011
   3   C   :   -0.000088038    0.000019887   -0.000000010
   4   H   :    0.000170873   -0.000042251    0.000091385
   5   H   :    0.000170882   -0.000042253   -0.000091374
   6   H   :   -0.000188251   -0.000042217   -0.000104121
   7   H   :   -0.000188179   -0.000042099    0.000104116

Difference to translation invariance:
           :    0.0000000000    0.0000000000    0.0000000000

Difference to rotation invariance:
           :    0.0000000000    0.0000000000   -0.0000000000

[...]
      f0      :     0.008039  f :     0.095499
      f+1     :     0.007544
      f-1     :     0.009996
      f+2     :     0.009400
      f-2     :     0.006393
      f+3     :     0.025733
      f-3     :     0.028393
  2 C s       :     2.679116  s :     2.679116
      pz      :     0.938380  p :     2.577653
      px      :     0.897462
      py      :     0.741810
      dz2     :     0.099493  d :     0.620518
      dxz     :     0.193704
      dyz     :     0.024963
      dx2y2   :     0.162320
      dxy     :     0.140039
      f0      :     0.005299  f :     0.054356
      f+1     :     0.006926
      f-1     :     0.005973
      f+2     :     0.005418
      f-2     :     0.001680
      f+3     :     0.016769
      f-3     :     0.012291
  3 H s       :     0.674104  s :     0.674104
      pz      :     0.112423  p :     0.259157
      px      :     0.081442
      py      :     0.065292
      dz2     :     0.009236  d :     0.029784
      dxz     :     0.008192
      dyz     :     0.006028
      dx2y2   :     0.003529
      dxy     :     0.002798
  4 H s       :     0.674089  s :     0.674089
      pz      :     0.112414  p :     0.259156
      px      :     0.081445
      py      :     0.065297
      dz2     :     0.009235  d :     0.029783
      dxz     :     0.008191
      dyz     :     0.006029
      dx2y2   :     0.003530
      dxy     :     0.002798
  5 H s       :     0.704938  s :     0.704938
      pz      :     0.118057  p :     0.320353
      px      :     0.077652
      py      :     0.124643
      dz2     :     0.009331  d :     0.030995
      dxz     :     0.008857
      dyz     :     0.007490
      dx2y2   :     0.002725
      dxy     :     0.002592
  6 H s       :     0.704920  s :     0.704920
      pz      :     0.118082  p :     0.320348
      px      :     0.077649
      py      :     0.124617
      dz2     :     0.009337  d :     0.030995
      dxz     :     0.008858
      dyz     :     0.007492
      dx2y2   :     0.002721
      dxy     :     0.002588


                      *****************************
                      * MAYER POPULATION ANALYSIS *
                      *****************************

  NA   - Mulliken gross atomic population
  ZA   - Total nuclear charge
  QA   - Mulliken gross atomic charge
  VA   - Mayer's total valence
  BVA  - Mayer's bonded valence
  FA   - Mayer's free valence

  ATOM       NA         ZA         QA         VA         BVA        FA
  0 O      8.3127     8.0000    -0.3127     2.2015     1.1371     1.0645
  1 C      5.9023     6.0000     0.0977     3.2942     3.2420     0.0522
  2 C      6.5141     6.0000    -0.5141     3.3817     2.9128     0.4688
  3 H      0.8209     1.0000     0.1791     1.0557     1.0086     0.0471
  4 H      0.8209     1.0000     0.1791     1.0556     1.0084     0.0472
  5 H      0.8146     1.0000     0.1854     1.1070     1.0091     0.0978
  6 H      0.8146     1.0000     0.1854     1.1070     1.0091     0.0979

  Mayer bond orders larger than 0.100000
B(  0-O ,  1-C ) :   0.7787 B(  0-O ,  2-C ) :   0.2561 B(  1-C ,  2-C ) :   0.6604 
B(  1-C ,  3-H ) :   0.9706 B(  1-C ,  4-H ) :   0.9704 B(  2-C ,  5-H ) :   1.0161 
B(  2-C ,  6-H ) :   1.0163 


-------
TIMINGS
-------

Total TD-DFT gradient time  ....        5.061 sec

Fock matrix formation       ....       1.095 sec  ( 21.6%)
  Coulomb formation         ....       0.817 sec  ( 74.6% of F)
  XC integration            ....       0.279 sec  ( 25.4% of F)
Z-vector equation           ....       1.122 sec  ( 22.2%)
Densities                   ....       0.001 sec  (  0.0%)
One electron gradient       ....       0.021 sec  (  0.4%)
RI-J Coulomb gradient       ....       0.112 sec  (  2.2%)
COSX gradient               ....       0.427 sec  (  8.4%)
XC gradient                 ....       2.083 sec  ( 41.2%)

Maximum memory used throughout the entire CIS-calculation: 34.9 MB
=> NOW LEAVING ORCA_CIS


-------------------------------------------------------------------------------
                          DFT DISPERSION CORRECTION                            
                                                                               
                              DFTD3 V3.1  Rev 1                                
                          USING Becke-Johnson damping                          
-------------------------------------------------------------------------------
The WB97M functional is recognized
Active option DFTDOPT                   ...         4   

molecular C6(AA) [au] = 351.903504 


            DFT-D V3
 parameters
 s6 scaling factor         :     1.0000 
 a1 scaling factor         :     0.5660 
 s8 scaling factor         :     0.3908 
 a2 scaling factor         :     3.1280 
 ad hoc parameters k1-k3   :    16.0000     1.3333    -4.0000 

 Edisp/kcal,au: -3.290436072145  -0.005243643096 
 E6   /kcal   :  -2.653633191 
 E8   /kcal   :  -0.636802881 
 % E8         :  19.353145518 

-------------------------   ----------------
Dispersion correction           -0.005243643
-------------------------   ----------------


-------------------------   --------------------
FINAL SINGLE POINT ENERGY      -153.657114345586
-------------------------   --------------------

[1741191091.884697] [ohm:192221:0]        ib_iface.c:1059 UCX  ERROR ibv_create_cq(cqe=256) failed: Connection timed out
[1741191091.884705] [ohm:192215:0]        ib_iface.c:1059 UCX  ERROR ibv_create_cq(cqe=256) failed: Connection timed out
[1741191091.890947] [ohm:192217:0]        ib_iface.c:1059 UCX  ERROR ibv_create_cq(cqe=256) failed: Connection timed out
[1741191091.938888] [ohm:192214:0]        ib_iface.c:1059 UCX  ERROR ibv_create_cq(cqe=256) failed: Connection timed out
[1741191091.938886] [ohm:192220:0]        ib_iface.c:1059 UCX  ERROR ibv_create_cq(cqe=256) failed: Connection timed out
[1741191091.939149] [ohm:192216:0]        ib_iface.c:1059 UCX  ERROR ibv_create_cq(cqe=256) failed: Connection timed out
[1741191091.943897] [ohm:192222:0]        ib_iface.c:1059 UCX  ERROR ibv_create_cq(cqe=256) failed: Connection timed out
[1741191091.943898] [ohm:192224:0]        ib_iface.c:1059 UCX  ERROR ibv_create_cq(cqe=256) failed: Connection timed out
[1741191091.943897] [ohm:192218:0]        ib_iface.c:1059 UCX  ERROR ibv_create_cq(cqe=256) failed: Connection timed out
[1741191091.947439] [ohm:192223:0]        ib_iface.c:1059 UCX  ERROR ibv_create_cq(cqe=256) failed: Connection timed out
[1741191091.952050] [ohm:192219:0]        ib_iface.c:1059 UCX  ERROR ibv_create_cq(cqe=256) failed: Connection timed out
[1741191091.959486] [ohm:192225:0]        ib_iface.c:1059 UCX  ERROR ibv_create_cq(cqe=256) failed: Connection timed out
[1741191091.978611] [ohm:192227:0]        ib_iface.c:1059 UCX  ERROR ibv_create_cq(cqe=256) failed: Connection timed out
[1741191091.979966] [ohm:192228:0]        ib_iface.c:1059 UCX  ERROR ibv_create_cq(cqe=256) failed: Connection timed out
[1741191091.983767] [ohm:192226:0]        ib_iface.c:1059 UCX  ERROR ibv_create_cq(cqe=256) failed: Connection timed out
[1741191091.986371] [ohm:192237:0]        ib_iface.c:1059 UCX  ERROR ibv_create_cq(cqe=256) failed: Connection timed out


           ************************************************************
           *        Program running with 16 parallel MPI-processes    *
           *              working on a common directory               *
           ************************************************************

------------------------------------------------------------------------------
                              ORCA PROPERTY CALCULATIONS
------------------------------------------------------------------------------

GBWName                                 ... orca.gbw
Number of atoms                         ...      7
Number of basis functions               ...    182
Max core memory                         ...   1024 MB

Electric properties:
Dipole moment                           ... YES
Quadrupole moment                       ...  NO
Static polarizability (Dipole/Dipole)   ...  NO
Static polarizability (Dipole/Quad.)    ...  NO
Static polarizability (Quad./Quad.)     ...  NO
Static polarizability (Velocity)        ...  NO

Atomic electric properties:
Dipole moment                           ...  NO
Quadrupole moment                       ...  NO
Static polarizability                   ...  NO

Choice of electric origin               ... Center of mass
Position of electric origin             ...     0.164229     0.031269    -0.000119

General magnetic properties:
Magnetizability                         ...  NO

EPR properties:
g-Tensor (aka g-matrix)                 ...  NO
Zero-Field splitting spin-orbit         ...  NO
Zero-field splitting spin-spin          ...  NO
Hyperfine couplings                     ...  NO (   0 nuclei)
Quadrupole couplings                    ...  NO (   0 nuclei)
Contact density                         ...  NO (   0 nuclei)

NMR properties:
Chemical shifts                         ...  NO (   0 nuclei)
Spin-rotation constants                 ...  NO (   0 nuclei)
Spin-spin couplings                     ...  NO (   0 nuclei,    0 pairs)

Choice of magnetic origin               ... GIAO
Position of magnetic origin             ...     0.000000     0.000000     0.000000

Properties with geometric perturbations:
SCF Hessian                             ...  NO
IR spectrum                             ...  NO
VCD spectrum                            ...  NO
X-ray spectroscopy properties:
SCF XES/XAS/RIXS spectra                ...  NO


-------------
DIPOLE MOMENT
-------------

Method             : SCF
Type of density    : Electron Density
Multiplicity       :   1
Irrep              :   0
Energy             :  -153.8659830286099748 Eh
Relativity type    : 
Basis              : AO
                                X                 Y                 Z
Electronic contribution:      0.078887044       1.549136167      -0.000366225
Nuclear contribution   :     -0.257696114      -2.451152306       0.000425388
                        -----------------------------------------
Total Dipole Moment    :     -0.178809070      -0.902016139       0.000059162
                        -----------------------------------------
Magnitude (a.u.)       :      0.919568270
Magnitude (Debye)      :      2.337356789



--------------------
Rotational spectrum 
--------------------
 
Rotational constants in cm-1:             0.902118             0.664192             0.451532 
Rotational constants in MHz :         27044.804709         19911.987900         13536.577924 

Dipole components along the rotational axes: 
x,y,z [a.u.] :    -0.763733    -0.512169     0.000022 
x,y,z [Debye]:    -1.941256    -1.301830     0.000056 

 

-------------
DIPOLE MOMENT
-------------

Method             : TDA/CIS
Type of density    : Electron Density
Level              : Relaxed density
State              :   1
Multiplicity       :   1
Irrep              :   0
Energy             :     0.0000000000000000 Eh
Relativity type    : 
Basis              : AO
                                X                 Y                 Z
Electronic contribution:      0.790076216       2.069984789      -0.000404047
Nuclear contribution   :     -0.257696114      -2.451152306       0.000425388
                        -----------------------------------------
Total Dipole Moment    :      0.532380101      -0.381167517       0.000021341
                        -----------------------------------------
Magnitude (a.u.)       :      0.654765033
Magnitude (Debye)      :      1.664280452



--------------------
Rotational spectrum 
--------------------
 
Rotational constants in cm-1:             0.902118             0.664192             0.451532 
Rotational constants in MHz :         27044.804709         19911.987900         13536.577924 

Dipole components along the rotational axes: 
x,y,z [a.u.] :     0.107587    -0.645866    -0.000055 
x,y,z [Debye]:     0.273463    -1.641660    -0.000141 

 

Dipole moment calculation done in   0.0 sec 

Maximum memory used throughout the entire PROP-calculation: 7.3 MB
[1741191092.943738] [ohm:192297:0]        ib_iface.c:1059 UCX  ERROR ibv_create_cq(cqe=256) failed: Connection timed out
[1741191092.943742] [ohm:192299:0]        ib_iface.c:1059 UCX  ERROR ibv_create_cq(cqe=256) failed: Connection timed out
[1741191092.943738] [ohm:192301:0]        ib_iface.c:1059 UCX  ERROR ibv_create_cq(cqe=256) failed: Connection timed out
[1741191092.943738] [ohm:192305:0]        ib_iface.c:1059 UCX  ERROR ibv_create_cq(cqe=256) failed: Connection timed out
[1741191092.958490] [ohm:192309:0]        ib_iface.c:1059 UCX  ERROR ibv_create_cq(cqe=256) failed: Connection timed out
[1741191092.978729] [ohm:192303:0]        ib_iface.c:1059 UCX  ERROR ibv_create_cq(cqe=256) failed: Connection timed out
[1741191092.978737] [ohm:192322:0]        ib_iface.c:1059 UCX  ERROR ibv_create_cq(cqe=256) failed: Connection timed out
[1741191092.978949] [ohm:192318:0]        ib_iface.c:1059 UCX  ERROR ibv_create_cq(cqe=256) failed: Connection timed out
[1741191092.994064] [ohm:192298:0]        ib_iface.c:1059 UCX  ERROR ibv_create_cq(cqe=256) failed: Connection timed out
[1741191092.994065] [ohm:192300:0]        ib_iface.c:1059 UCX  ERROR ibv_create_cq(cqe=256) failed: Connection timed out
[1741191092.994065] [ohm:192313:0]        ib_iface.c:1059 UCX  ERROR ibv_create_cq(cqe=256) failed: Connection timed out
[1741191092.994066] [ohm:192324:0]        ib_iface.c:1059 UCX  ERROR ibv_create_cq(cqe=256) failed: Connection timed out
[1741191092.994247] [ohm:192307:0]        ib_iface.c:1059 UCX  ERROR ibv_create_cq(cqe=256) failed: Connection timed out
[1741191092.994336] [ohm:192302:0]        ib_iface.c:1059 UCX  ERROR ibv_create_cq(cqe=256) failed: Connection timed out
[1741191093.000896] [ohm:192304:0]        ib_iface.c:1059 UCX  ERROR ibv_create_cq(cqe=256) failed: Connection timed out
[1741191093.000896] [ohm:192320:0]        ib_iface.c:1059 UCX  ERROR ibv_create_cq(cqe=256) failed: Connection timed out

--------------------------------
SUGGESTED CITATIONS FOR THIS RUN
--------------------------------

Below you find a list of papers that are relevant to this ORCA run
We neither can nor want to force you to cite these papers, but we appreciate if you do
You receive ORCA, which is the product of decades of hard work by many enthusiastic individuals, for free
The only thing we kindly ask in return is that you cite our papers,
We deeply appreciate it, if you show your appreciation for ORCA by not just citing the generic ORCA reference.

Please note that relegating all ORCA citations to the supporting information does *not* help us.
SI sections are not indexed - citations you put there will not count into any citation statistics
But we need these citations in order to attract the funding resources that allow us to do what we are doing

Therefore, if you are a happy ORCA user, please consider citing a few of the papers listed below in the main body of your paper

In addition to the list printed below, the program has created the file orca.bibtex that contains the list in bibtex format
You can import this file easily into all common literature databanks and citation aid programs


List of essential papers. We consider these as the minimum necessary citations

  1. Neese,F.
     Software update: the ORCA program system, version 5.0
     WIRES Comput. Molec. Sci., 2022 12(1)e1606
     doi.org/10.1002/wcms.1606

List of papers to cite with high priority. The work reported in these papers was absolutely
necessary for this run to complete.
Our perspective: the developers of density functionals and basis sets usually get cited in chemistry papers
Good! But without the algorithms to do something with them, the functionals or basis sets would not do anything.
Hence, in our opinion, the algorithm design and method developments papers are equally worthy of getting cited

  1. Neese,F.; Olbrich,G.
     Efficient use of the resolution of the identity approximation in time-dependent density functional calculations with hybrid density functionals
     Chem. Phys. Lett., 2002 362 170-178
     doi.org/10.1016/s0009-2614(02)01053-9
  2. Neese,F.
     An improvement of the resolution of the identity approximation for the formation of the Coulomb matrix
     J. Comp. Chem., 2003 24(14)1740-1747
     doi.org/10.1002/jcc.10318
  3. Neese,F.; Wennmohs,F.; Hansen,A.; Becker,U.
     Efficient, approximate and parallel Hartree-Fock and hybrid DFT calculations. A 'chain-of-spheres' algorithm for the Hartree-Fock exchange
     Chem. Phys., 2009 356(1-3)98-109
     doi.org/10.1016/j.chemphys.2008.10.036
  4. Petrenko,T.; Kossmann,S.; Neese,F.
     Efficient time-dependent density functional theory approximations for hybrid density functionals: Analytical gradients and parallelization
     J. Chem. Phys., 2011 134 054116
     doi.org/10.1063/1.3533441
  5. Helmich-Paris,B.; de Souza,B.; Neese,F.; Izsák,R.
     An improved chain of spheres for exchange algorithm
     J. Chem. Phys., 2021 155 104109
     doi.org/doi: 10.1063/5.0058766.
  6. Neese,F.
     The SHARK Integral Generation and Digestion System
     J. Comp. Chem., 2022  1-16
     doi.org/10.1002/jcc.26942
  7. Lehtola,S.; Steigemann,C.; Oliveira,M.; Marques,M.
     Recent developments in Libxc - A comprehensive library of functionals for density functional theory
     Software X, 2018 7 
     doi.org/10.1016/j.softx.2017.11.002
  8. Grimme,S.; Antony,J.; Ehrlich,S.; Krieg,H.
     A consistent and accurate ab initio parametrization of density functional dispersion correction (DFT-D) for the 94 elements H-Pu
     J. Chem. Phys., 2010 132 154104-XXXX
     doi.org/10.1063/1.3382344
  9. Grimme,S.; Ehrlich,S.; Goerigk,L.
     Effect of the damping function in dispersion corrected density functional theory
     J. Comput. Chem., 2011 32(7)1456-1465
     doi.org/10.1002/jcc.21759

List of suggested additional citations. These are papers that are important in the 'surrounding' of 
of this run, or papers that preceded the highly important papers. If you like your results we are grateful for a citation.

  1. Izsak,R.; Neese,F.
     An overlap fitted chain of spheres exchange method
     J. Chem. Phys., 2011 135 144105
     doi.org/10.1063/1.3646921
  2. Izsak,R.; Hansen,A.; Neese,F.
     The resolution of identity and chain of spheres approximations for the LPNO-CCSD singles Fock term
     Molec. Phys., 2012 110 2413-2417
     doi.org/10.1080/00268976.2012.687466
  3. Neese,F.
     The ORCA program system
     WIRES Comput. Molec. Sci., 2012 2(1)73-78
     doi.org/10.1002/wcms.81
  4. Izsak,R.; Neese,F.; Klopper,W.
     Robust fitting techniques in the chain of spheres approximation to the Fock exchange: The role of the complementary space
     J. Chem. Phys., 2013 139 
     doi.org/10.1063/1.4819264
  5. Neese,F.
     Software update: the ORCA program system, version 4.0
     WIRES Comput. Molec. Sci., 2018 8(1)1-6
     doi.org/10.1002/wcms.1327
  6. Neese,F.; Wennmohs,F.; Becker,U.; Riplinger,C.
     The ORCA quantum chemistry program package
     J. Chem. Phys., 2020 152 Art. No. L224108
     doi.org/10.1063/5.0004608

List of optional additional citations

  1. Neese,F.
     Approximate second-order SCF convergence for spin unrestricted wavefunctions
     Chem. Phys. Lett., 2000 325(1-3)93-98
     doi.org/10.1016/s0009-2614(00)00662-x

Timings for individual modules:

Sum of individual times          ...       19.705 sec (=   0.328 min)
Startup calculation              ...        1.401 sec (=   0.023 min)   7.1 %
SCF iterations                   ...        6.849 sec (=   0.114 min)  34.8 %
Property integrals               ...        1.088 sec (=   0.018 min)   5.5 %
Property calculations            ...        1.416 sec (=   0.024 min)   7.2 %
CIS module                       ...        8.951 sec (=   0.149 min)  45.4 %
                             ****ORCA TERMINATED NORMALLY****
TOTAL RUN TIME: 0 days 0 hours 0 minutes 20 seconds 769 msec
