
                                 *****************
                                 * O   R   C   A *
                                 *****************

                                            #,                                       
                                            ###                                      
                                            ####                                     
                                            #####                                    
                                            ######                                   
                                           ########,                                 
                                     ,,################,,,,,                         
                               ,,#################################,,                 
                          ,,##########################################,,             
                       ,#########################################, ''#####,          
                    ,#############################################,,   '####,        
                  ,##################################################,,,,####,       
                ,###########''''           ''''###############################       
              ,#####''   ,,,,##########,,,,          '''####'''          '####       
            ,##' ,,,,###########################,,,                        '##       
           ' ,,###''''                  '''############,,,                           
         ,,##''                                '''############,,,,        ,,,,,,###''
      ,#''                                            '''#######################'''  
     '                                                          ''''####''''         
             ,#######,   #######,   ,#######,      ##                                
            ,#'     '#,  ##    ##  ,#'     '#,    #''#        ,####,   ,####,        
            ##       ##  ##   ,#'  ##            #'  '#       #'       #'  '#        
            ##       ##  #######   ##           ,######,      #####,   #    #        
            '#,     ,#'  ##    ##  '#,     ,#' ,#      #,     #,   #   #,  ,#        
             '#######'   ##     ##  '#######'  #'      '#     '####' # '####'        



                #########################################################
                #                        -***-                          #
                #          Department of theory and spectroscopy        #
                #                                                       #
                #                      Frank Neese                      #
                #                                                       #
                #     Directorship, Architecture, Infrastructure        #
                #                    SHARK, DRIVERS                     #
                #        Core code/Algorithms in most modules           #
                #                                                       #
                #        Max Planck Institute fuer Kohlenforschung      #
                #                Kaiser Wilhelm Platz 1                 #
                #                 D-45470 Muelheim/Ruhr                 #
                #                      Germany                          #
                #                                                       #
                #                  All rights reserved                  #
                #                        -***-                          #
                #########################################################


                         Program Version 6.0.0  -   RELEASE  -


 With contributions from (in alphabetic order):
   Daniel Aravena         : Magnetic Suceptibility
   Michael Atanasov       : Ab Initio Ligand Field Theory (pilot matlab implementation)
   Alexander A. Auer      : GIAO ZORA, VPT2 properties, NMR spectrum
   Ute Becker             : All parallelization in ORCA, NUMFREQ, NUMCALC
   Giovanni Bistoni       : ED, misc. LED, open-shell LED, HFLD
   Martin Brehm           : Molecular dynamics
   Dmytro Bykov           : pre 5.0 version of the SCF Hessian
   Marcos Casanova-Páez   : Triplet and SCS-CIS(D). UHF-(DLPNO)-IP/EA/STEOM-CCSD. UHF-CVS-IP/STEOM-CCSD
   Vijay G. Chilkuri      : MRCI spin determinant printing, contributions to CSF-ICE
   Pauline Colinet        : FMM embedding
   Dipayan Datta          : RHF DLPNO-CCSD density
   Achintya Kumar Dutta   : EOM-CC, STEOM-CC
   Nicolas Foglia         : Exact transition moments, OPA infrastructure, MCD improvements
   Dmitry Ganyushin       : Spin-Orbit,Spin-Spin,Magnetic field MRCI
   Miquel Garcia          : C-PCM and meta-GGA Hessian, CCSD/C-PCM, Gaussian charge scheme
   Tiago L. C. Gouveia    : GS-ROHF, GS-ROCIS
   Yang Guo               : DLPNO-NEVPT2, F12-NEVPT2, CIM, IAO-localization
   Andreas Hansen         : Spin unrestricted coupled pair/coupled cluster methods
   Ingolf Harden          : AUTO-CI MPn and infrastructure 
   Benjamin Helmich-Paris : MC-RPA, TRAH-(SCF,CASSCF), AVAS, COSX integrals, SCF dyn. polar.
   Lee Huntington         : MR-EOM, pCC
   Robert Izsak           : Overlap fitted RIJCOSX, COSX-SCS-MP3, EOM
   Riya Kayal             : Wick's Theorem for AUTO-CI, AUTO-CI UHF-CCSDT
   Emily Kempfer          : AUTO-CI, RHF CISDT and CCSDT
   Christian Kollmar      : KDIIS, OOCD, Brueckner-CCSD(T), CCSD density, CASPT2, CASPT2-K, improved NEVPT2
   Axel Koslowski         : Symmetry handling
   Simone Kossmann        : Meta GGA functionals, TD-DFT gradient, OOMP2, (MP2 Hessian; deprecated post 5.0)
   Lucas Lang             : DCDCAS
   Marvin Lechner         : AUTO-CI (C++ implementation), FIC-MRCC
   Spencer Leger          : CASSCF response
   Dagmar Lenk            : GEPOL surface, SMD, ORCA-2-JSON
   Dimitrios Liakos       : Extrapolation schemes; Compound Job, initial MDCI parallelization
   Dimitrios Manganas     : Further ROCIS development; embedding schemes. LFT, Crystal Embedding
   Dimitrios Pantazis     : SARC Basis sets
   Anastasios Papadopoulos: AUTO-CI, single reference methods and gradients
   Taras Petrenko         : pre 6.0 DFT Hessian and TD-DFT gradient, (ASA, deprecated), ECA, 1-Electron XAS/XES, NRVS
   Peter Pinski           : DLPNO-MP2, DLPNO-MP2 Gradient
   Christoph Reimann      : Effective Core Potentials
   Marius Retegan         : Local ZFS, SOC
   Christoph Riplinger    : Optimizer, TS searches, QM/MM, DLPNO-CCSD(T), (RO)-DLPNO pert. Triples
   Michael Roemelt        : Original ROCIS implementation
   Masaaki Saitow         : Open-shell DLPNO-CCSD energy and density
   Barbara Sandhoefer     : DKH picture change effects
   Kantharuban Sivalingam : CASSCF convergence/infrastructure, NEVPT2 and variants, FIC-MRCI
   Bernardo de Souza      : ESD, SOC TD-DFT
   Georgi Stoychev        : AutoAux, RI-MP2 NMR, DLPNO-MP2 response, X2C
   Van Anh Tran           : RI-MP2 g-tensors
   Willem Van den Heuvel  : Paramagnetic NMR
   Zikuan Wang            : NOTCH, Electric field optimization 
   Frank Wennmohs         : Technical directorship and infrastructure
   Hang Xu                : AUTO-CI-Response properties 


 We gratefully acknowledge several colleagues who have allowed us to
 interface, adapt or use parts of their codes:
   Stefan Grimme, W. Hujo, H. Kruse, P. Pracht,  : VdW corrections, initial TS optimization,
                  C. Bannwarth, S. Ehlert,         DFT functionals, gCP, sTDA/sTD-DF
                  L. Wittmann, M. Mueller
   Ed Valeev, F. Pavosevic, A. Kumar             : LibInt (2-el integral package), F12 methods
   Garnet Chan, S. Sharma, J. Yang, R. Olivares  : DMRG
   Ulf Ekstrom                                   : XCFun DFT Library
   Mihaly Kallay                                 : mrcc  (arbitrary order and MRCC methods)
   Frank Weinhold                                : gennbo (NPA and NBO analysis)
   Simon Mueller                                 : openCOSMO-RS
   Christopher J. Cramer and Donald G. Truhlar   : smd solvation model
   Lars Goerigk                                  : TD-DFT with DH, B97 family of functionals
   V. Asgeirsson, H. Jonsson                     : NEB implementation
   FAccTs GmbH                                   : IRC, NEB, NEB-TS, DLPNO-Multilevel, CI-OPT
                                                   MM, QMMM, 2- and 3-layer-ONIOM, Crystal-QMMM,
                                                   LR-CPCM, SF, NACMEs, symmetry and pop. for TD-DFT,
                                                   nearIR, NL-DFT gradient (VV10), updates on ESD,
                                                   ML-optimized integration grids, MBIS, APM,
                                                   GOAT, DOCKER, SOLVATOR, interface openCOSMO-RS
   S Lehtola, MJT Oliveira, MAL Marques          : LibXC Library
   Liviu Ungur et al                             : ANISO software


 Your calculation uses the libint2 library for the computation of 2-el integrals
 For citations please refer to: http://libint.valeyev.net

 Your ORCA version has been built with support for libXC version: 6.2.2
 For citations please refer to: https://libxc.gitlab.io

 This ORCA versions uses:
   CBLAS   interface :  Fast vector & matrix operations
   LAPACKE interface :  Fast linear algebra routines
   SCALAPACK package :  Parallel linear algebra routines
   Shared memory     :  Shared parallel matrices
   BLAS/LAPACK       :  OpenBLAS 0.3.27  USE64BITINT DYNAMIC_ARCH NO_AFFINITY Zen SINGLE_THREADED
        Core in use  :  Zen
   Copyright (c) 2011-2014, The OpenBLAS Project


Your calculation utilizes the atom-pairwise dispersion correction
with the Becke-Johnson damping scheme (D3BJ)


Warning: RI is on but no J-basis has been assigned. Assigning Def2/J (nothing to worry about!)
================================================================================

----- Orbital basis set information -----
Your calculation utilizes the basis: def2-TZVPPD
   F. Weigend and R. Ahlrichs, Phys. Chem. Chem. Phys. 7, 3297 (2005).
   D. Rappoport and F. Furche, J. Chem. Phys. 133, 134105 (2010)
   D. Rappoport, J. Chem. Phys. 155, 124102 (2021).

----- AuxJ basis set information -----
Your calculation utilizes the auxiliary basis: def2/J
   F. Weigend, Phys. Chem. Chem. Phys. 8, 1057 (2006).

================================================================================
                                        WARNINGS
                       Please study these warnings very carefully!
================================================================================

Using LibXC functional ID 531 : wB97M-V exchange-correlation functional
[ 1]  N. Mardirossian and M. Head-Gordon.,  J. Chem. Phys. 144, 214110 (2016)
Using LibXC functional ID 531 : wB97M-V exchange-correlation functional
[ 1]  N. Mardirossian and M. Head-Gordon.,  J. Chem. Phys. 144, 214110 (2016)

WARNING: B97M-V or wB97M-V functional requested.
  ===> : libXC variant has now been activated.
         Any manually given DFX/HFX/RangeSep scaling parameters are IGNORED!

Your calculation utilizes LibXC
 by S Lehtola, C Steigemann, MJT Oliveira & MAL Marques
Please cite in your paper:
 S Lehtola, C Steigemann, MJT Oliveira & MAL Marques, SoftwareX, 7, (2018), 1.
   


WARNING: your system is open-shell and RHF/RKS was chosen
  ===> : WILL SWITCH to UHF/UKS

INFO   : Checking CIS options ...

WARNING: CIS/ROCIS methods need fully converged wavefunctions
  ===> : Setting SCFConvForced true
         You can overwrite this default with %scf ConvForced false 


================================================================================
                                       INPUT FILE
================================================================================
NAME = orca.inp
|  1> ! Engrad def2-TZVPPD wB97M-D3BJ 
|  2> %pal nprocs 8 end%pal nprocs 32 end 
|  3>  %tddft nroots 2 Iroot 2 
|  4> sf true 
|  5> end 
|  6> *xyz 0 3 
|  7> O   3.32076942498541 0.75615831179987 -0.26182454640181
|  8> O   -0.67801469523041 0.82733505231357 -2.51464866119424
|  9> O   0.68085997241618 -2.82849942782569 -1.14992905285421
| 10> O   -3.54973156114307 -1.08701724417698 0.39167309772223
| 11> N   0.22173569747999 -1.60619579381341 0.70172329614437
| 12> N   -2.00898307557333 0.35723081344428 1.25879607414174
| 13> N   2.01571746012643 -1.05339845212461 -0.67203447234659
| 14> N   -1.91734045131562 -0.3119336266772 -0.98392961412579
| 15> C   1.47130265726682 0.42103520670468 1.16680025053564
| 16> C   -0.4847546668131 1.42721442535979 -0.21936105727805
| 17> C   0.33178639567568 -0.41340043631614 1.4879253331047
| 18> C   -0.56150112960477 0.73837677436942 1.15283634213281
| 19> C   1.96474039310342 1.47380848017373 2.08505253056155
| 20> C   -0.37663996075656 2.89596300931568 -0.3242840955126
| 21> C   2.35088973856756 0.08845393978389 0.03569919633442
| 22> C   -0.97842687401819 0.64139757673904 -1.35674417075285
| 23> C   0.94003076904 -1.89504673671567 -0.4276836250733
| 24> C   -2.56524604679914 -0.39505491387453 0.25436815784165
| 25> H   0.26183191767999 -0.65261575271725 2.55100530799673
| 26> H   -0.41973572697748 1.50626551455049 1.90576356296376
| 27> H   1.80472359182064 2.47161568364074 1.66633522936845
| 28> H   1.48086399405405 1.42428451875248 3.05753008820097
| 29> H   3.04301224620922 1.37545055155419 2.19875226414108
| 30> H   -1.2727339783609 3.38371748317963 0.07479441448976
| 31> H   0.47074911068175 3.27402348711345 0.25235162000116
| 32> H   -0.25984985356744 3.18981145223906 -1.36340180643272
| 33> H   -0.59993440090388 -2.17495529413146 0.81076322149564
| 34> H   -2.45346195742579 0.19897563589061 2.14903387321901
| 35> H   2.54698499633726 -1.25169439007258 -1.50373712270334
| 36> H   -2.32704398695476 -0.86630584847911 -1.71902563572017
| 37> *
| 38> 
| 39>                          ****END OF INPUT****
================================================================================

                     *******************************
                     * Energy+Gradient Calculation *
                     *******************************

---------------------------------
CARTESIAN COORDINATES (ANGSTROEM)
---------------------------------
  O      3.320769    0.756158   -0.261825
  O     -0.678015    0.827335   -2.514649
  O      0.680860   -2.828499   -1.149929
  O     -3.549732   -1.087017    0.391673
  N      0.221736   -1.606196    0.701723
  N     -2.008983    0.357231    1.258796
  N      2.015717   -1.053398   -0.672034
  N     -1.917340   -0.311934   -0.983930
  C      1.471303    0.421035    1.166800
  C     -0.484755    1.427214   -0.219361
  C      0.331786   -0.413400    1.487925
  C     -0.561501    0.738377    1.152836
  C      1.964740    1.473808    2.085053
  C     -0.376640    2.895963   -0.324284
  C      2.350890    0.088454    0.035699
  C     -0.978427    0.641398   -1.356744
  C      0.940031   -1.895047   -0.427684
  C     -2.565246   -0.395055    0.254368
  H      0.261832   -0.652616    2.551005
  H     -0.419736    1.506266    1.905764
  H      1.804724    2.471616    1.666335
  H      1.480864    1.424285    3.057530
  H      3.043012    1.375451    2.198752
  H     -1.272734    3.383717    0.074794
  H      0.470749    3.274023    0.252352
  H     -0.259850    3.189811   -1.363402
  H     -0.599934   -2.174955    0.810763
  H     -2.453462    0.198976    2.149034
  H      2.546985   -1.251694   -1.503737
  H     -2.327044   -0.866306   -1.719026

----------------------------
CARTESIAN COORDINATES (A.U.)
----------------------------
  NO LB      ZA    FRAG     MASS         X           Y           Z
   0 O     8.0000    0    15.999    6.275345    1.428932   -0.494777
   1 O     8.0000    0    15.999   -1.281262    1.563437   -4.751997
   2 O     8.0000    0    15.999    1.286639   -5.345089   -2.173051
   3 O     8.0000    0    15.999   -6.708020   -2.054165    0.740155
   4 N     7.0000    0    14.007    0.419020   -3.035270    1.326065
   5 N     7.0000    0    14.007   -3.796428    0.675068    2.378780
   6 N     7.0000    0    14.007    3.809154   -1.990635   -1.269961
   7 N     7.0000    0    14.007   -3.623248   -0.589469   -1.859358
   8 C     6.0000    0    12.011    2.780359    0.795641    2.204933
   9 C     6.0000    0    12.011   -0.916054    2.697044   -0.414532
  10 C     6.0000    0    12.011    0.626985   -0.781214    2.811771
  11 C     6.0000    0    12.011   -1.061083    1.395330    2.178545
  12 C     6.0000    0    12.011    3.712821    2.785094    3.940178
  13 C     6.0000    0    12.011   -0.711746    5.472577   -0.612808
  14 C     6.0000    0    12.011    4.442538    0.167154    0.067462
  15 C     6.0000    0    12.011   -1.848959    1.212066   -2.563875
  16 C     6.0000    0    12.011    1.776401   -3.581119   -0.808205
  17 C     6.0000    0    12.011   -4.847612   -0.746546    0.480686
  18 H     1.0000    0     1.008    0.494791   -1.233265    4.820701
  19 H     1.0000    0     1.008   -0.793186    2.846429    3.601371
  20 H     1.0000    0     1.008    3.410433    4.670677    3.148917
  21 H     1.0000    0     1.008    2.798427    2.691508    5.777895
  22 H     1.0000    0     1.008    5.750460    2.599225    4.155040
  23 H     1.0000    0     1.008   -2.405119    6.394299    0.141341
  24 H     1.0000    0     1.008    0.889587    6.187008    0.476875
  25 H     1.0000    0     1.008   -0.491045    6.027870   -2.576456
  26 H     1.0000    0     1.008   -1.133712   -4.110070    1.532120
  27 H     1.0000    0     1.008   -4.636371    0.376009    4.061085
  28 H     1.0000    0     1.008    4.813104   -2.365360   -2.841651
  29 H     1.0000    0     1.008   -4.397476   -1.637081   -3.248488

--------------------------------
INTERNAL COORDINATES (ANGSTROEM)
--------------------------------
 O      0   0   0     0.000000000000     0.00000000     0.00000000
 O      1   0   0     4.590267645865     0.00000000     0.00000000
 O      2   1   0     4.132084911753    62.46467662     0.00000000
 O      2   1   3     4.512007163048   103.39966328    55.71165941
 N      3   2   1     2.265709093222    74.09610809    66.29238322
 N      4   2   1     2.282906175024    63.04412547    40.48412663
 N      1   2   3     2.268463906742    54.72153767   359.39496180
 N      4   2   1     2.271065426271     7.05443935   321.58516907
 C      1   2   3     2.360890431784    67.46486394   287.40561719
 C      6   4   2     2.377621853240   118.76538076     0.89339556
 C      5   3   2     1.432824331159   151.88126581   309.50918733
 C     11   5   3     1.495606224160   118.18275557    81.25528683
 C      9   1   2     1.481553108819    90.76061635   230.42507428
 C     10   6   4     1.476455226714   122.60178365   122.10493970
 C      1   2   3     1.214502413348    55.46391809   320.88961655
 C      2   1   3     1.210604407299    75.18939398    72.90466457
 C      3   2   1     1.208363308907    65.44806863    35.04806690
 C      4   2   1     1.211146663714    33.61498459    33.20083553
 H     11   5   3     1.091905046059   110.29916207   209.56040458
 H     12  11   5     1.084734966039   108.15500585   174.05423457
 H     13   9   1     1.093868717124   111.23643230    74.35598764
 H     13   9   1     1.087336926819   111.94660708   196.04659795
 H     13   9   1     1.088702025689   109.29272513   318.26259744
 H     14  10   6     1.095514752208   110.92347989   340.75304547
 H     14  10   6     1.092477327761   111.31779190    99.45842564
 H     14  10   6     1.086164100720   110.18090242   220.68885227
 H      5   3   2     1.005245654107    87.07949902   105.31217457
 H      6   4   2     1.007536359910    86.47439844   177.30379949
 H      7   1   2     1.006625934818    90.16732630    94.14502436
 H      8   4  18     1.007745855057    87.81441460   179.58168068

---------------------------
INTERNAL COORDINATES (A.U.)
---------------------------
 O      0   0   0     0.000000000000     0.00000000     0.00000000
 O      1   0   0     8.674348732083     0.00000000     0.00000000
 O      2   1   0     7.808508845321    62.46467662     0.00000000
 O      2   1   3     8.526457852452   103.39966328    55.71165941
 N      3   2   1     4.281569685324    74.09610809    66.29238322
 N      4   2   1     4.314067460233    63.04412547    40.48412663
 N      1   2   3     4.286775528427    54.72153767   359.39496180
 N      4   2   1     4.291691687869     7.05443935   321.58516907
 C      1   2   3     4.461436348267    67.46486394   287.40561719
 C      6   4   2     4.493054152651   118.76538076     0.89339556
 C      5   3   2     2.707645583909   151.88126581   309.50918733
 C     11   5   3     2.826286167851   118.18275557    81.25528683
 C      9   1   2     2.799729628527    90.76061635   230.42507428
 C     10   6   4     2.790096027486   122.60178365   122.10493970
 C      1   2   3     2.295076950213    55.46391809   320.88961655
 C      2   1   3     2.287710786313    75.18939398    72.90466457
 C      3   2   1     2.283475724114    65.44806863    35.04806690
 C      4   2   1     2.288735502432    33.61498459    33.20083553
 H     11   5   3     2.063401501298   110.29916207   209.56040458
 H     12  11   5     2.049852013702   108.15500585   174.05423457
 H     13   9   1     2.067112301828   111.23643230    74.35598764
 H     13   9   1     2.054769006987   111.94660708   196.04659795
 H     13   9   1     2.057348669997   109.29272513   318.26259744
 H     14  10   6     2.070222857345   110.92347989   340.75304547
 H     14  10   6     2.064482956986   111.31779190    99.45842564
 H     14  10   6     2.052552686858   110.18090242   220.68885227
 H      5   3   2     1.899638983577    87.07949902   105.31217457
 H      6   4   2     1.903967790198    86.47439844   177.30379949
 H      7   1   2     1.902247336109    90.16732630    94.14502436
 H      8   4  18     1.904363678652    87.81441460   179.58168068

---------------------
BASIS SET INFORMATION
---------------------
There are 4 groups of distinct atoms

 Group   1 Type O   : 12s7p3d1f contracted to 6s4p3d1f pattern {621111/4111/111/1}
 Group   2 Type N   : 12s6p3d1f contracted to 6s3p3d1f pattern {621111/411/111/1}
 Group   3 Type C   : 12s6p3d1f contracted to 6s3p3d1f pattern {621111/411/111/1}
 Group   4 Type H   : 5s3p1d contracted to 3s3p1d pattern {311/111/1}

Atom   0O    basis set group =>   1
Atom   1O    basis set group =>   1
Atom   2O    basis set group =>   1
Atom   3O    basis set group =>   1
Atom   4N    basis set group =>   2
Atom   5N    basis set group =>   2
Atom   6N    basis set group =>   2
Atom   7N    basis set group =>   2
Atom   8C    basis set group =>   3
Atom   9C    basis set group =>   3
Atom  10C    basis set group =>   3
Atom  11C    basis set group =>   3
Atom  12C    basis set group =>   3
Atom  13C    basis set group =>   3
Atom  14C    basis set group =>   3
Atom  15C    basis set group =>   3
Atom  16C    basis set group =>   3
Atom  17C    basis set group =>   3
Atom  18H    basis set group =>   4
Atom  19H    basis set group =>   4
Atom  20H    basis set group =>   4
Atom  21H    basis set group =>   4
Atom  22H    basis set group =>   4
Atom  23H    basis set group =>   4
Atom  24H    basis set group =>   4
Atom  25H    basis set group =>   4
Atom  26H    basis set group =>   4
Atom  27H    basis set group =>   4
Atom  28H    basis set group =>   4
Atom  29H    basis set group =>   4
---------------------------------
AUXILIARY/J BASIS SET INFORMATION
---------------------------------
There are 4 groups of distinct atoms

 Group   1 Type O   : 12s5p4d2f1g contracted to 6s4p3d1f1g pattern {711111/2111/211/2/1}
 Group   2 Type N   : 12s5p4d2f1g contracted to 6s4p3d1f1g pattern {711111/2111/211/2/1}
 Group   3 Type C   : 12s5p4d2f1g contracted to 6s4p3d1f1g pattern {711111/2111/211/2/1}
 Group   4 Type H   : 5s2p1d contracted to 3s1p1d pattern {311/2/1}

Atom   0O    basis set group =>   1
Atom   1O    basis set group =>   1
Atom   2O    basis set group =>   1
Atom   3O    basis set group =>   1
Atom   4N    basis set group =>   2
Atom   5N    basis set group =>   2
Atom   6N    basis set group =>   2
Atom   7N    basis set group =>   2
Atom   8C    basis set group =>   3
Atom   9C    basis set group =>   3
Atom  10C    basis set group =>   3
Atom  11C    basis set group =>   3
Atom  12C    basis set group =>   3
Atom  13C    basis set group =>   3
Atom  14C    basis set group =>   3
Atom  15C    basis set group =>   3
Atom  16C    basis set group =>   3
Atom  17C    basis set group =>   3
Atom  18H    basis set group =>   4
Atom  19H    basis set group =>   4
Atom  20H    basis set group =>   4
Atom  21H    basis set group =>   4
Atom  22H    basis set group =>   4
Atom  23H    basis set group =>   4
Atom  24H    basis set group =>   4
Atom  25H    basis set group =>   4
Atom  26H    basis set group =>   4
Atom  27H    basis set group =>   4
Atom  28H    basis set group =>   4
Atom  29H    basis set group =>   4
[1737014259.385349] [ohm:119369:0]        ib_iface.c:1059 UCX  ERROR ibv_create_cq(cqe=256) failed: Connection timed out
[1737014259.385341] [ohm:119373:0]        ib_iface.c:1059 UCX  ERROR ibv_create_cq(cqe=256) failed: Connection timed out
[1737014259.385346] [ohm:119387:0]        ib_iface.c:1059 UCX  ERROR ibv_create_cq(cqe=256) failed: Connection timed out
[1737014259.385346] [ohm:119384:0]        ib_iface.c:1059 UCX  ERROR ibv_create_cq(cqe=256) failed: Connection timed out
[1737014259.412449] [ohm:119370:0]        ib_iface.c:1059 UCX  ERROR ibv_create_cq(cqe=256) failed: Connection timed out
[1737014259.413048] [ohm:119388:0]        ib_iface.c:1059 UCX  ERROR ibv_create_cq(cqe=256) failed: Connection timed out
[1737014259.413374] [ohm:119386:0]        ib_iface.c:1059 UCX  ERROR ibv_create_cq(cqe=256) failed: Connection timed out
[1737014259.437648] [ohm:119391:0]        ib_iface.c:1059 UCX  ERROR ibv_create_cq(cqe=256) failed: Connection timed out
[1737014259.438257] [ohm:119404:0]        ib_iface.c:1059 UCX  ERROR ibv_create_cq(cqe=256) failed: Connection timed out
[1737014259.439297] [ohm:119383:0]        ib_iface.c:1059 UCX  ERROR ibv_create_cq(cqe=256) failed: Connection timed out
[1737014259.444695] [ohm:119374:0]        ib_iface.c:1059 UCX  ERROR ibv_create_cq(cqe=256) failed: Connection timed out
[1737014259.446747] [ohm:119376:0]        ib_iface.c:1059 UCX  ERROR ibv_create_cq(cqe=256) failed: Connection timed out
[1737014259.448009] [ohm:119372:0]        ib_iface.c:1059 UCX  ERROR ibv_create_cq(cqe=256) failed: Connection timed out
[1737014259.448568] [ohm:119377:0]        ib_iface.c:1059 UCX  ERROR ibv_create_cq(cqe=256) failed: Connection timed out
[1737014259.449344] [ohm:119405:0]        ib_iface.c:1059 UCX  ERROR ibv_create_cq(cqe=256) failed: Connection timed out
[1737014259.449483] [ohm:119366:0]        ib_iface.c:1059 UCX  ERROR ibv_create_cq(cqe=256) failed: Connection timed out
[1737014259.449481] [ohm:119381:0]        ib_iface.c:1059 UCX  ERROR ibv_create_cq(cqe=256) failed: Connection timed out
[1737014259.449570] [ohm:119389:0]        ib_iface.c:1059 UCX  ERROR ibv_create_cq(cqe=256) failed: Connection timed out
[1737014259.449587] [ohm:119399:0]        ib_iface.c:1059 UCX  ERROR ibv_create_cq(cqe=256) failed: Connection timed out
[1737014259.449817] [ohm:119379:0]        ib_iface.c:1059 UCX  ERROR ibv_create_cq(cqe=256) failed: Connection timed out
[1737014259.450164] [ohm:119393:0]        ib_iface.c:1059 UCX  ERROR ibv_create_cq(cqe=256) failed: Connection timed out
[1737014259.450715] [ohm:119380:0]        ib_iface.c:1059 UCX  ERROR ibv_create_cq(cqe=256) failed: Connection timed out
[1737014259.450844] [ohm:119378:0]        ib_iface.c:1059 UCX  ERROR ibv_create_cq(cqe=256) failed: Connection timed out
[1737014259.451335] [ohm:119382:0]        ib_iface.c:1059 UCX  ERROR ibv_create_cq(cqe=256) failed: Connection timed out
[1737014259.451593] [ohm:119392:0]        ib_iface.c:1059 UCX  ERROR ibv_create_cq(cqe=256) failed: Connection timed out
[1737014259.451667] [ohm:119385:0]        ib_iface.c:1059 UCX  ERROR ibv_create_cq(cqe=256) failed: Connection timed out
[1737014259.452044] [ohm:119368:0]        ib_iface.c:1059 UCX  ERROR ibv_create_cq(cqe=256) failed: Connection timed out
[1737014259.452861] [ohm:119390:0]        ib_iface.c:1059 UCX  ERROR ibv_create_cq(cqe=256) failed: Connection timed out
[1737014259.453724] [ohm:119417:0]        ib_iface.c:1059 UCX  ERROR ibv_create_cq(cqe=256) failed: Connection timed out
[1737014259.455174] [ohm:119367:0]        ib_iface.c:1059 UCX  ERROR ibv_create_cq(cqe=256) failed: Connection timed out
[1737014259.455435] [ohm:119375:0]        ib_iface.c:1059 UCX  ERROR ibv_create_cq(cqe=256) failed: Connection timed out
[1737014259.455555] [ohm:119371:0]        ib_iface.c:1059 UCX  ERROR ibv_create_cq(cqe=256) failed: Connection timed out


           ************************************************************
           *        Program running with 32 parallel MPI-processes    *
           *              working on a common directory               *
           ************************************************************
------------------------------------------------------------------------------
                             ORCA STARTUP CALCULATIONS
                           -- RI-GTO INTEGRALS CHOSEN --
------------------------------------------------------------------------------
------------------------------------------------------------------------------
                   ___                                                        
                  /   \      - P O W E R E D   B Y -                         
                 /     \                                                     
                 |  |  |   _    _      __       _____    __    __             
                 |  |  |  | |  | |    /  \     |  _  \  |  |  /  |          
                  \  \/   | |  | |   /    \    | | | |  |  | /  /          
                 / \  \   | |__| |  /  /\  \   | |_| |  |  |/  /          
                |  |  |   |  __  | /  /__\  \  |    /   |      \           
                |  |  |   | |  | | |   __   |  |    \   |  |\   \          
                \     /   | |  | | |  |  |  |  | |\  \  |  | \   \       
                 \___/    |_|  |_| |__|  |__|  |_| \__\ |__|  \__/        
                                                                              
                      - O R C A' S   B I G   F R I E N D -                    
                                      &                                       
                       - I N T E G R A L  F E E D E R -                       
                                                                              
 v1 FN, 2020, v2 2021, v3 2022-2024                                           
------------------------------------------------------------------------------


----------------------
SHARK INTEGRAL PACKAGE
----------------------

Number of atoms                             ...     30
Number of basis functions                   ...    882
Number of shells                            ...    322
Maximum angular momentum                    ...      3
Integral batch strategy                     ... SHARK/LIBINT Hybrid
RI-J (if used) integral strategy            ... SPLIT-RIJ (Revised 2003 algorithm where possible)
Printlevel                                  ...      1
Contraction scheme used                     ... SEGMENTED contraction
Prescreening option                         ... SCHWARTZ
   Thresh                                   ... 2.500e-11
   Tcut                                     ... 2.500e-12
   Tpresel                                  ... 2.500e-12 
Coulomb Range Separation                    ... NOT USED
Exchange Range Separation                   ... Long Range
   Mu parameter                             ... 3.000e-01
   Scaling (regular/separated)              ... 1.500e-01 8.500e-01
Multipole approximations                    ... NOT USED
Finite Nucleus Model                        ... NOT USED
CABS basis                                  ... NOT available
Auxiliary Coulomb fitting basis             ... AVAILABLE
   # of basis functions in Aux-J            ...   1014
   # of shells in Aux-J                     ...    330
   Maximum angular momentum in Aux-J        ...      4
Auxiliary J/K fitting basis                 ... NOT available
Auxiliary Correlation fitting basis         ... NOT available
Auxiliary 'external' fitting basis          ... NOT available

Checking pre-screening integrals            ... done (  0.0 sec) Dimension = 322
Check shell pair data                       ... done (  0.0 sec)
Shell pair information
Shell pair cut-off parameter TPreSel        ...   2.5e-12
Total number of shell pairs                 ...     52003
Shell pairs after pre-screening             ...     45281
Total number of primitive shell pairs       ...    129718
Primitive shell pairs kept                  ...     84752
          la=0 lb=0:   8765 shell pairs
          la=1 lb=0:  11973 shell pairs
          la=1 lb=1:   4128 shell pairs
          la=2 lb=0:   8133 shell pairs
          la=2 lb=1:   5616 shell pairs
          la=2 lb=2:   1937 shell pairs
          la=3 lb=0:   2097 shell pairs
          la=3 lb=1:   1482 shell pairs
          la=3 lb=2:   1003 shell pairs
          la=3 lb=3:    147 shell pairs

Calculating one electron integrals          ... done (  0.1 sec)
Calculating RI/J V-Matrix + Cholesky decomp.... done (  0.0 sec)
Calculating Nuclear repulsion               ... done (  0.0 sec) ENN=   1458.403857378636 Eh

Diagonalization of the overlap matrix:
Smallest eigenvalue                        ... 3.265e-07
Time for diagonalization                   ...    0.123 sec
Threshold for overlap eigenvalues          ... 1.000e-07
Number of eigenvalues below threshold      ... 0

IMPORTANT:
Smallest eigenvalue of S below the DiffSThresh (1.000e-06) while
Thresh>1e-12 and/or TCut>1e-13! In order to avoid SCF convergence issues,
Thresh will be set to at least 1e-12 and TCut to at least 1e-13.
This can be turned off by adding %SCF DiffSThresh -1 END to the input.

Time for construction of square roots      ...    0.112 sec
Total time needed                          ...    0.246 sec

-------------------
DFT GRID GENERATION
-------------------

General Integration Accuracy     IntAcc      ... 4.388
Radial Grid Type                 RadialGrid  ... OptM3 with GC (2021)
Angular Grid (max. ang.)         AngularGrid ... 4 (Lebedev-302)
Angular grid pruning method      GridPruning ... 4 (adaptive)
Weight generation scheme         WeightScheme... mBecke (2022)
Basis function cutoff            BFCut       ... 1.0000e-11
Integration weight cutoff        WCut        ... 1.0000e-14
Partially contracted basis set               ... off
Rotationally invariant grid construction     ... off
Angular grids for H and He will be reduced by one unit
Diffuse basis detected: some atoms will have their outermost
                        angular grid increased by 1.

Total number of grid points                  ...   151757
Total number of batches                      ...     2386
Average number of points per batch           ...       63
Average number of grid points per atom       ...     5059

--------------------
COSX GRID GENERATION
--------------------

GRIDX 1
-------
General Integration Accuracy     IntAcc      ... 3.816
Radial Grid Type                 RadialGrid  ... OptM3 with GC (2021)
Angular Grid (max. ang.)         AngularGrid ... 1 (Lebedev-50)
Angular grid pruning method      GridPruning ... 4 (adaptive)
Weight generation scheme         WeightScheme... mBecke (2022)
Basis function cutoff            BFCut       ... 1.0000e-11
Integration weight cutoff        WCut        ... 1.0000e-14
Partially contracted basis set               ... on
Rotationally invariant grid construction     ... off
Angular grids for H and He will be reduced by one unit
Diffuse basis detected: some atoms will have their outermost
                        angular grid increased by 1.

Total number of grid points                  ...    19042
Total number of batches                      ...      166
Average number of points per batch           ...      114
Average number of grid points per atom       ...      635
UseSFitting                                  ... on

GRIDX 2
-------
General Integration Accuracy     IntAcc      ... 4.020
Radial Grid Type                 RadialGrid  ... OptM3 with GC (2021)
Angular Grid (max. ang.)         AngularGrid ... 2 (Lebedev-110)
Angular grid pruning method      GridPruning ... 4 (adaptive)
Weight generation scheme         WeightScheme... mBecke (2022)
Basis function cutoff            BFCut       ... 1.0000e-11
Integration weight cutoff        WCut        ... 1.0000e-14
Partially contracted basis set               ... on
Rotationally invariant grid construction     ... off
Angular grids for H and He will be reduced by one unit
Diffuse basis detected: some atoms will have their outermost
                        angular grid increased by 1.

Total number of grid points                  ...    45763
Total number of batches                      ...      375
Average number of points per batch           ...      122
Average number of grid points per atom       ...     1525
UseSFitting                                  ... on

GRIDX 3
-------
General Integration Accuracy     IntAcc      ... 4.338
Radial Grid Type                 RadialGrid  ... OptM3 with GC (2021)
Angular Grid (max. ang.)         AngularGrid ... 3 (Lebedev-194)
Angular grid pruning method      GridPruning ... 4 (adaptive)
Weight generation scheme         WeightScheme... mBecke (2022)
Basis function cutoff            BFCut       ... 1.0000e-11
Integration weight cutoff        WCut        ... 1.0000e-14
Partially contracted basis set               ... on
Rotationally invariant grid construction     ... off
Angular grids for H and He will be reduced by one unit
Diffuse basis detected: some atoms will have their outermost
                        angular grid increased by 1.

Total number of grid points                  ...   100701
Total number of batches                      ...      801
Average number of points per batch           ...      125
Average number of grid points per atom       ...     3357
UseSFitting                                  ... on
Initializing property integral containers    ... done (  0.0 sec)

SHARK setup successfully completed in   3.3 seconds

Maximum memory used throughout the entire STARTUP-calculation: 81.5 MB
[1737014263.711269] [ohm:119535:0]        ib_iface.c:1059 UCX  ERROR ibv_create_cq(cqe=256) failed: Connection timed out
[1737014263.711247] [ohm:119538:0]        ib_iface.c:1059 UCX  ERROR ibv_create_cq(cqe=256) failed: Connection timed out
[1737014263.711232] [ohm:119539:0]        ib_iface.c:1059 UCX  ERROR ibv_create_cq(cqe=256) failed: Connection timed out
[1737014263.711233] [ohm:119542:0]        ib_iface.c:1059 UCX  ERROR ibv_create_cq(cqe=256) failed: Connection timed out
[1737014263.711253] [ohm:119541:0]        ib_iface.c:1059 UCX  ERROR ibv_create_cq(cqe=256) failed: Connection timed out
[1737014263.711242] [ohm:119545:0]        ib_iface.c:1059 UCX  ERROR ibv_create_cq(cqe=256) failed: Connection timed out
[1737014263.716704] [ohm:119534:0]        ib_iface.c:1059 UCX  ERROR ibv_create_cq(cqe=256) failed: Connection timed out
[1737014263.744071] [ohm:119559:0]        ib_iface.c:1059 UCX  ERROR ibv_create_cq(cqe=256) failed: Connection timed out
[1737014263.744083] [ohm:119582:0]        ib_iface.c:1059 UCX  ERROR ibv_create_cq(cqe=256) failed: Connection timed out
[1737014263.744120] [ohm:119536:0]        ib_iface.c:1059 UCX  ERROR ibv_create_cq(cqe=256) failed: Connection timed out
[1737014263.744550] [ohm:119578:0]        ib_iface.c:1059 UCX  ERROR ibv_create_cq(cqe=256) failed: Connection timed out
[1737014263.752417] [ohm:119546:0]        ib_iface.c:1059 UCX  ERROR ibv_create_cq(cqe=256) failed: Connection timed out
[1737014263.752702] [ohm:119590:0]        ib_iface.c:1059 UCX  ERROR ibv_create_cq(cqe=256) failed: Connection timed out
[1737014263.771549] [ohm:119566:0]        ib_iface.c:1059 UCX  ERROR ibv_create_cq(cqe=256) failed: Connection timed out
[1737014263.781948] [ohm:119552:0]        ib_iface.c:1059 UCX  ERROR ibv_create_cq(cqe=256) failed: Connection timed out
[1737014263.781943] [ohm:119563:0]        ib_iface.c:1059 UCX  ERROR ibv_create_cq(cqe=256) failed: Connection timed out
[1737014263.783047] [ohm:119537:0]        ib_iface.c:1059 UCX  ERROR ibv_create_cq(cqe=256) failed: Connection timed out
[1737014263.787342] [ohm:119569:0]        ib_iface.c:1059 UCX  ERROR ibv_create_cq(cqe=256) failed: Connection timed out
[1737014263.788077] [ohm:119554:0]        ib_iface.c:1059 UCX  ERROR ibv_create_cq(cqe=256) failed: Connection timed out
[1737014263.790244] [ohm:119565:0]        ib_iface.c:1059 UCX  ERROR ibv_create_cq(cqe=256) failed: Connection timed out
[1737014263.790967] [ohm:119574:0]        ib_iface.c:1059 UCX  ERROR ibv_create_cq(cqe=256) failed: Connection timed out
[1737014263.790963] [ohm:119567:0]        ib_iface.c:1059 UCX  ERROR ibv_create_cq(cqe=256) failed: Connection timed out
[1737014263.791053] [ohm:119570:0]        ib_iface.c:1059 UCX  ERROR ibv_create_cq(cqe=256) failed: Connection timed out
[1737014263.791146] [ohm:119587:0]        ib_iface.c:1059 UCX  ERROR ibv_create_cq(cqe=256) failed: Connection timed out
[1737014263.791500] [ohm:119561:0]        ib_iface.c:1059 UCX  ERROR ibv_create_cq(cqe=256) failed: Connection timed out
[1737014263.793455] [ohm:119544:0]        ib_iface.c:1059 UCX  ERROR ibv_create_cq(cqe=256) failed: Connection timed out
[1737014263.793433] [ohm:119572:0]        ib_iface.c:1059 UCX  ERROR ibv_create_cq(cqe=256) failed: Connection timed out
[1737014263.793454] [ohm:119571:0]        ib_iface.c:1059 UCX  ERROR ibv_create_cq(cqe=256) failed: Connection timed out
[1737014263.793749] [ohm:119540:0]        ib_iface.c:1059 UCX  ERROR ibv_create_cq(cqe=256) failed: Connection timed out
[1737014263.793872] [ohm:119543:0]        ib_iface.c:1059 UCX  ERROR ibv_create_cq(cqe=256) failed: Connection timed out
[1737014263.794174] [ohm:119568:0]        ib_iface.c:1059 UCX  ERROR ibv_create_cq(cqe=256) failed: Connection timed out
[1737014263.794202] [ohm:119551:0]        ib_iface.c:1059 UCX  ERROR ibv_create_cq(cqe=256) failed: Connection timed out


           ************************************************************
           *        Program running with 32 parallel MPI-processes    *
           *              working on a common directory               *
           ************************************************************
-------------------------------------------------------------------------------
                                 ORCA GUESS
                   Start orbitals & Density for SCF / CASSCF
-------------------------------------------------------------------------------

------------
SCF SETTINGS
------------
Hamiltonian:
 Density Functional     Method          .... DFT(GTOs)
  Functional kind                       .... Exchange-Correlation
  Functional name                       .... wB97M-V exchange-correlation functional
  Functional family                     .... Hybrid MGGA
  Functional refs                              
    [ 0] N. Mardirossian and M. Head-Gordon.,  J. Chem. Phys. 144, 214110 (2016), doi: 10.1063/1.4952647
  Fraction of HF Exchange (short range) .... 0.1500
  Fraction of HF Exchange (long range)  .... 1.0000
  Range separation parameter mu         .... 0.3000
  Functional external parameters        .... 17
    Parameter  0 _cx00      =  8.500000e-01 : u^00 coefficient for exchange
    Parameter  1 _cx01      =  1.007000e+00 : u^01 coefficient for exchange
    Parameter  2 _cx10      =  2.590000e-01 : u^10 coefficient for exchange
    Parameter  3 _css00     =  4.430000e-01 : u^00 coefficient for same-spin correlation
    Parameter  4 _css04     = -1.437000e+00 : u^04 coefficient for same-spin correlation
    Parameter  5 _css10     = -4.535000e+00 : u^10 coefficient for same-spin correlation
    Parameter  6 _css20     = -3.390000e+00 : u^20 coefficient for same-spin correlation
    Parameter  7 _css43     =  4.278000e+00 : u^43 coefficient for same-spin correlation
    Parameter  8 _cos00     =  1.000000e+00 : u^00 coefficient for opposite-spin correlation
    Parameter  9 _cos10     =  1.358000e+00 : u^10 coefficient for opposite-spin correlation
    Parameter 10 _cos20     =  2.924000e+00 : u^20 coefficient for opposite-spin correlation
    Parameter 11 _cos21     = -8.812000e+00 : u^21 coefficient for opposite-spin correlation
    Parameter 12 _cos60     = -1.390000e+00 : u^60 coefficient for opposite-spin correlation
    Parameter 13 _cos61     =  9.142000e+00 : u^61 coefficient for opposite-spin correlation
    Parameter 14 _alpha     =  1.000000e+00 : fraction of HF exchange
    Parameter 15 _beta      = -8.500000e-01 : fraction of short-range exchange
    Parameter 16 _omega     =  3.000000e-01 : range-separation constant
 Long-range corrected/Screened/Range-Separated Hybrid DFT is turned on
   Amount of maximum screened exact exchange              ....  0.850000
   Range separation parameter mu (erf(mu*r12)/r12)        ....  0.300000
 RI-approximation to the Coulomb term is turned on
   Number of AuxJ basis functions       .... 1014
   RIJ-COSX (HFX calculated with COS-X)).... on


General Settings:
 Integral files         IntName         .... orca
 Hartree-Fock type      HFTyp           .... UHF
 Total Charge           Charge          ....    0
 Multiplicity           Mult            ....    3
 Number of Electrons    NEL             ....  132
 Basis Dimension        Dim             ....  882
 Nuclear Repulsion      ENuc            ....   1458.4038573786 Eh

Convergence Acceleration:
 AO-DIIS                CNVDIIS         .... on
   Start iteration      DIISMaxIt       ....    12
   Startup error        DIISStart       ....  0.200000
   # of expansion vecs  DIISMaxEq       ....     5
   Bias factor          DIISBfac        ....   1.050
   Max. coefficient     DIISMaxC        ....  10.000
 MO-DIIS                CNVKDIIS        .... off
 Trust-Rad. Augm. Hess. CNVTRAH         .... auto
   Auto Start mean grad. ratio tolernc. ....  1.125000
   Auto Start start iteration           ....    50
   Auto Start num. interpolation iter.  ....    10
   Max. Number of Micro iterations      ....    24
   Max. Number of Macro iterations      .... Maxiter - #DIIS iter
   Number of Davidson start vectors     ....     2
   Converg. threshold    (grad. norm)   ....   1.000e-05
   Grad. Scal. Fac. for Micro threshold ....   0.100
   Minimum threshold for Micro iter.    ....   1.000e-02
   NR start threshold (gradient norm)   ....   1.000e-04
   Initial trust radius                 ....   0.400
   Minimum AH scaling param. (alpha)    ....   1.000
   Maximum AH scaling param. (alpha)    .... 1000.000
   Quad. conv. algorithm                .... NR
   White noise on init. David. guess    .... on
   Maximum white noise                  ....   0.010
   Pseudo random numbers                .... off
   Inactive MOs                         .... canonical
   Orbital update algorithm             .... Taylor
   Preconditioner                       .... Diag
   Full preconditioner red. dimension   ....   250
 SOSCF                  CNVSOSCF        .... on
   Start iteration      SOSCFMaxIt      ....   150
   Startup grad/error   SOSCFStart      ....  0.003300
   Hessian update       SOSCFHessUp     .... L-BFGS
 Level Shifting         CNVShift        .... on
   Level shift para.    LevelShift      ....    0.2500
   Turn off err/grad.   ShiftErr        ....    0.0010
 Zerner damping         CNVZerner       .... off
 Static damping         CNVDamp         .... on
   Fraction old density DampFac         ....    0.7000
   Max. Damping (<1)    DampMax         ....    0.9800
   Min. Damping (>=0)   DampMin         ....    0.0000
   Turn off err/grad.   DampErr         ....    0.1000

SCF Procedure:
 Maximum # iterations   MaxIter         ....   125
 SCF integral mode      SCFMode         .... Direct
   Integral package                     .... SHARK and LIBINT hybrid scheme
 Reset frequency        DirectResetFreq ....    20
 Integral Threshold     Thresh          ....  1.000e-12 Eh
 Primitive CutOff       TCut            ....  1.000e-13 Eh

Convergence Tolerance:
 Convergence Check Mode ConvCheckMode   .... Total+1el-Energy
 Convergence forced     ConvForced      .... 1
 Energy Change          TolE            ....  1.000e-08 Eh
 1-El. energy change                    ....  1.000e-05 Eh
 Orbital Gradient       TolG            ....  1.000e-05
 Orbital Rotation angle TolX            ....  1.000e-05
 DIIS Error             TolErr          ....  5.000e-07

------------------------------
INITIAL GUESS: MODEL POTENTIAL
------------------------------
Loading Hartree-Fock densities                     ... done
Calculating cut-offs                               ... done
Initializing the effective Hamiltonian             ... done
Setting up the integral package (SHARK)            ... done
Starting the Coulomb interaction                   ... done (   0.1 sec)
Making the grid                                    ... done (   0.2 sec)
Mapping shells                                     ... done
Starting the XC term evaluation                    ... done (   0.2 sec)
  promolecular density results
     # of electrons  =    131.990264927
     EX              =   -113.601022421
     EC              =     -4.507092939
     EX+EC           =   -118.108115359
Transforming the Hamiltonian                       ... done (   0.1 sec)
Diagonalizing the Hamiltonian                      ... done (   0.1 sec)
Back transforming the eigenvectors                 ... done (   0.1 sec)
Now organizing SCF variables                       ... done
                      ------------------
                      INITIAL GUESS DONE (   1.0 sec)
                      ------------------
             **** ENERGY FILE WAS UPDATED (orca.en.tmp) ****
Finished Guess after   2.1 sec
Maximum memory used throughout the entire GUESS-calculation: 74.1 MB
[1737014266.223091] [ohm:119713:0]        ib_iface.c:1059 UCX  ERROR ibv_create_cq(cqe=256) failed: Connection timed out
[1737014266.223090] [ohm:119710:0]        ib_iface.c:1059 UCX  ERROR ibv_create_cq(cqe=256) failed: Connection timed out
[1737014266.223617] [ohm:119704:0]        ib_iface.c:1059 UCX  ERROR ibv_create_cq(cqe=256) failed: Connection timed out
[1737014266.230231] [ohm:119707:0]        ib_iface.c:1059 UCX  ERROR ibv_create_cq(cqe=256) failed: Connection timed out
[1737014266.231920] [ohm:119702:0]        ib_iface.c:1059 UCX  ERROR ibv_create_cq(cqe=256) failed: Connection timed out
[1737014266.232842] [ohm:119712:0]        ib_iface.c:1059 UCX  ERROR ibv_create_cq(cqe=256) failed: Connection timed out
[1737014266.238503] [ohm:119742:0]        ib_iface.c:1059 UCX  ERROR ibv_create_cq(cqe=256) failed: Connection timed out
[1737014266.254349] [ohm:119733:0]        ib_iface.c:1059 UCX  ERROR ibv_create_cq(cqe=256) failed: Connection timed out
[1737014266.267099] [ohm:119701:0]        ib_iface.c:1059 UCX  ERROR ibv_create_cq(cqe=256) failed: Connection timed out
[1737014266.270462] [ohm:119725:0]        ib_iface.c:1059 UCX  ERROR ibv_create_cq(cqe=256) failed: Connection timed out
[1737014266.276432] [ohm:119722:0]        ib_iface.c:1059 UCX  ERROR ibv_create_cq(cqe=256) failed: Connection timed out
[1737014266.278731] [ohm:119726:0]        ib_iface.c:1059 UCX  ERROR ibv_create_cq(cqe=256) failed: Connection timed out
[1737014266.278715] [ohm:119750:0]        ib_iface.c:1059 UCX  ERROR ibv_create_cq(cqe=256) failed: Connection timed out
[1737014266.291070] [ohm:119715:0]        ib_iface.c:1059 UCX  ERROR ibv_create_cq(cqe=256) failed: Connection timed out
[1737014266.291993] [ohm:119716:0]        ib_iface.c:1059 UCX  ERROR ibv_create_cq(cqe=256) failed: Connection timed out
[1737014266.301534] [ohm:119711:0]        ib_iface.c:1059 UCX  ERROR ibv_create_cq(cqe=256) failed: Connection timed out
[1737014266.302182] [ohm:119705:0]        ib_iface.c:1059 UCX  ERROR ibv_create_cq(cqe=256) failed: Connection timed out
[1737014266.302737] [ohm:119723:0]        ib_iface.c:1059 UCX  ERROR ibv_create_cq(cqe=256) failed: Connection timed out
[1737014266.306820] [ohm:119720:0]        ib_iface.c:1059 UCX  ERROR ibv_create_cq(cqe=256) failed: Connection timed out
[1737014266.306905] [ohm:119747:0]        ib_iface.c:1059 UCX  ERROR ibv_create_cq(cqe=256) failed: Connection timed out
[1737014266.307601] [ohm:119717:0]        ib_iface.c:1059 UCX  ERROR ibv_create_cq(cqe=256) failed: Connection timed out
[1737014266.311036] [ohm:119706:0]        ib_iface.c:1059 UCX  ERROR ibv_create_cq(cqe=256) failed: Connection timed out
[1737014266.312504] [ohm:119721:0]        ib_iface.c:1059 UCX  ERROR ibv_create_cq(cqe=256) failed: Connection timed out
[1737014266.313226] [ohm:119703:0]        ib_iface.c:1059 UCX  ERROR ibv_create_cq(cqe=256) failed: Connection timed out
[1737014266.314053] [ohm:119714:0]        ib_iface.c:1059 UCX  ERROR ibv_create_cq(cqe=256) failed: Connection timed out
[1737014266.314341] [ohm:119709:0]        ib_iface.c:1059 UCX  ERROR ibv_create_cq(cqe=256) failed: Connection timed out
[1737014266.314420] [ohm:119719:0]        ib_iface.c:1059 UCX  ERROR ibv_create_cq(cqe=256) failed: Connection timed out
[1737014266.314439] [ohm:119727:0]        ib_iface.c:1059 UCX  ERROR ibv_create_cq(cqe=256) failed: Connection timed out
[1737014266.314582] [ohm:119737:0]        ib_iface.c:1059 UCX  ERROR ibv_create_cq(cqe=256) failed: Connection timed out
[1737014266.315177] [ohm:119708:0]        ib_iface.c:1059 UCX  ERROR ibv_create_cq(cqe=256) failed: Connection timed out
[1737014266.315359] [ohm:119718:0]        ib_iface.c:1059 UCX  ERROR ibv_create_cq(cqe=256) failed: Connection timed out
[1737014266.316224] [ohm:119748:0]        ib_iface.c:1059 UCX  ERROR ibv_create_cq(cqe=256) failed: Connection timed out


           ************************************************************
           *        Program running with 32 parallel MPI-processes    *
           *              working on a common directory               *
           ************************************************************

-------------------------------------------------------------------------------------------
                                      ORCA LEAN-SCF
                              memory conserving SCF solver
-------------------------------------------------------------------------------------------

----------------------------------------D-I-I-S--------------------------------------------
Iteration    Energy (Eh)           Delta-E    RMSDP     MaxDP     DIISErr   Damp  Time(sec)
-------------------------------------------------------------------------------------------
               ***  Starting incremental Fock matrix formation  ***
    1    -908.1162248668902066     0.00e+00  2.28e-03  5.27e-01  1.46e-01  0.700  11.7
    2    -908.3823811608144752    -2.66e-01  1.76e-03  4.02e-01  6.88e-02  0.700   8.1
                               ***Turning on AO-DIIS***
    3    -908.5000121096854855    -1.18e-01  1.29e-03  3.09e-01  2.89e-02  0.700   7.3
    4    -908.5723836680858767    -7.24e-02  2.96e-03  6.87e-01  1.76e-02  0.000   7.1
    5    -908.7350688806113794    -1.63e-01  3.73e-04  1.45e-01  3.66e-03  0.000   7.3
                              *** Initializing SOSCF ***
---------------------------------------S-O-S-C-F--------------------------------------
Iteration    Energy (Eh)           Delta-E    RMSDP     MaxDP     MaxGrad    Time(sec)
--------------------------------------------------------------------------------------
    6    -908.7364290773184621    -1.36e-03  1.60e-04  6.16e-02  2.67e-03     7.6
               *** Restarting incremental Fock matrix formation ***
    7    -908.7370548040494214    -6.26e-04  3.02e-04  5.66e-02  4.90e-03    11.2
    8    -908.7374817792438080    -4.27e-04  2.85e-04  9.43e-02  2.80e-03     9.8
    9    -908.7376512929467935    -1.70e-04  1.23e-04  1.18e-02  8.43e-04     9.9
   10    -908.7377021215006607    -5.08e-05  3.96e-05  1.58e-02  5.13e-04     9.5
   11    -908.7377173965287511    -1.53e-05  1.11e-05  2.65e-03  1.35e-04     9.2
   12    -908.7377189202111367    -1.52e-06  6.20e-06  1.51e-03  1.11e-04     8.8
   13    -908.7377197866444476    -8.66e-07  5.80e-06  1.48e-03  3.52e-05     8.6
   14    -908.7377199853158345    -1.99e-07  2.09e-06  5.51e-04  1.82e-05     8.5
   15    -908.7377200186951995    -3.34e-08  1.44e-06  3.99e-04  1.11e-05     8.0
   16    -908.7377200432752034    -2.46e-08  2.40e-06  1.10e-03  6.00e-06     7.8
   17    -908.7377200680066380    -2.47e-08  2.23e-06  7.86e-04  2.97e-06     7.6
   18    -908.7377200759096922    -7.90e-09  2.61e-06  9.85e-04  8.09e-07     7.3
                 **** Energy Check signals convergence ****

               *****************************************************
               *                     SUCCESS                       *
               *           SCF CONVERGED AFTER  18 CYCLES          *
               *****************************************************

Recomputing exchange energy using gridx3       ... done (   14.707 sec)
Old exchange energy                            :    -35.057089042 Eh
New exchange energy                            :    -35.057097842 Eh
Exchange energy change after final integration :     -0.000008801 Eh
Total energy after final integration           :   -908.737728877 Eh
             **** ENERGY FILE WAS UPDATED (orca.en.tmp) ****

----------------
TOTAL SCF ENERGY
----------------

Total Energy       :       -908.73772887659197 Eh          -24728.01075 eV

Components:
Nuclear Repulsion  :       1458.40385737863608 Eh           39685.18652 eV
Electronic Energy  :      -2367.14157745454577 Eh          -64413.19703 eV
One Electron Energy:      -4133.64233508037614 Eh         -112482.12642 eV
Two Electron Energy:       1766.50075762583060 Eh           48068.92939 eV

Virial components:
Potential Energy   :      -1814.80768212507451 Eh          -49383.42764 eV
Kinetic Energy     :        906.06995324848253 Eh           24655.41689 eV
Virial Ratio       :          2.00294433737544

DFT components:
N(Alpha)           :       67.000069757938 electrons
N(Beta)            :       65.000082793270 electrons
N(Total)           :      132.000152551207 electrons
E(XC)              :      -86.328619150485 Eh       

---------------
SCF CONVERGENCE
---------------

  Last Energy change         ...    7.9031e-09  Tolerance :   1.0000e-08
  Last MAX-Density change    ...    9.8498e-04  Tolerance :   1.0000e-07
  Last RMS-Density change    ...    2.6089e-06  Tolerance :   5.0000e-09
  Last DIIS Error            ...    2.6716e-03  Tolerance :   5.0000e-07
  Last Orbital Gradient      ...    8.0948e-07  Tolerance :   1.0000e-05
  Last Orbital Rotation      ...    6.5631e-06  Tolerance :   1.0000e-05


----------------------
UHF SPIN CONTAMINATION
----------------------

Warning: in a DFT calculation there is little theoretical justification to 
         calculate <S**2> as in Hartree-Fock theory. We will do it anyways
         but you should keep in mind that the values have only limited relevance

Expectation value of <S**2>     :     2.011435
Ideal value S*(S+1) for S=1.0   :     2.000000
Deviation                       :     0.011435

----------------
ORBITAL ENERGIES
----------------
                 SPIN UP ORBITALS
  NO   OCC          E(Eh)            E(eV) 
   0   1.0000     -19.334072      -526.1068 
   1   1.0000     -19.330629      -526.0132 
   2   1.0000     -19.322869      -525.8020 
   3   1.0000     -19.318453      -525.6818 
   4   1.0000     -14.562918      -396.2771 
   5   1.0000     -14.562482      -396.2653 
   6   1.0000     -14.562242      -396.2588 
   7   1.0000     -14.561011      -396.2253 
   8   1.0000     -10.506094      -285.8854 
   9   1.0000     -10.505759      -285.8762 
  10   1.0000     -10.481672      -285.2208 
  11   1.0000     -10.480613      -285.1920 
  12   1.0000     -10.450222      -284.3650 
  13   1.0000     -10.441925      -284.1392 
  14   1.0000     -10.419247      -283.5221 
  15   1.0000     -10.414749      -283.3997 
  16   1.0000     -10.379097      -282.4296 
  17   1.0000     -10.375622      -282.3350 
  18   1.0000      -1.222486       -33.2655 
  19   1.0000      -1.218230       -33.1497 
  20   1.0000      -1.198773       -32.6203 
  21   1.0000      -1.196583       -32.5607 
  22   1.0000      -1.125251       -30.6196 
  23   1.0000      -1.097683       -29.8695 
  24   1.0000      -1.067650       -29.0522 
  25   1.0000      -1.057265       -28.7696 
  26   1.0000      -1.006398       -27.3855 
  27   1.0000      -0.952571       -25.9208 
  28   1.0000      -0.897372       -24.4187 
  29   1.0000      -0.841578       -22.9005 
  30   1.0000      -0.830986       -22.6123 
  31   1.0000      -0.802037       -21.8245 
  32   1.0000      -0.787292       -21.4233 
  33   1.0000      -0.783120       -21.3098 
  34   1.0000      -0.710818       -19.3423 
  35   1.0000      -0.699481       -19.0339 
  36   1.0000      -0.694651       -18.9024 
  37   1.0000      -0.677859       -18.4455 
  38   1.0000      -0.661005       -17.9869 
  39   1.0000      -0.637508       -17.3475 
  40   1.0000      -0.623912       -16.9775 
  41   1.0000      -0.599952       -16.3255 
  42   1.0000      -0.595457       -16.2032 
  43   1.0000      -0.588567       -16.0157 
  44   1.0000      -0.584130       -15.8950 
  45   1.0000      -0.576331       -15.6828 
  46   1.0000      -0.566612       -15.4183 
  47   1.0000      -0.565966       -15.4007 
  48   1.0000      -0.557812       -15.1788 
  49   1.0000      -0.552961       -15.0468 
  50   1.0000      -0.549047       -14.9403 
  51   1.0000      -0.544800       -14.8247 
  52   1.0000      -0.537591       -14.6286 
  53   1.0000      -0.523809       -14.2536 
  54   1.0000      -0.513364       -13.9693 
  55   1.0000      -0.511381       -13.9154 
  56   1.0000      -0.497104       -13.5269 
  57   1.0000      -0.424839       -11.5605 
  58   1.0000      -0.420771       -11.4498 
  59   1.0000      -0.411790       -11.2054 
  60   1.0000      -0.404546       -11.0083 
  61   1.0000      -0.399215       -10.8632 
  62   1.0000      -0.393972       -10.7205 
  63   1.0000      -0.391125       -10.6431 
  64   1.0000      -0.383699       -10.4410 
  65   1.0000      -0.350833        -9.5467 
  66   1.0000      -0.311445        -8.4748 
  67   0.0000       0.006777         0.1844 
  68   0.0000       0.027987         0.7616 
  69   0.0000       0.032723         0.8904 
  70   0.0000       0.036172         0.9843 
  71   0.0000       0.054420         1.4809 
  72   0.0000       0.056665         1.5419 
  73   0.0000       0.059132         1.6091 
  74   0.0000       0.063019         1.7148 
  75   0.0000       0.064672         1.7598 
  76   0.0000       0.069283         1.8853 
  77   0.0000       0.071642         1.9495 

                 SPIN DOWN ORBITALS
  NO   OCC          E(Eh)            E(eV) 
   0   1.0000     -19.330706      -526.0152 
   1   1.0000     -19.327058      -525.9160 
   2   1.0000     -19.322486      -525.7916 
   3   1.0000     -19.318495      -525.6830 
   4   1.0000     -14.562163      -396.2566 
   5   1.0000     -14.562126      -396.2556 
   6   1.0000     -14.560815      -396.2199 
   7   1.0000     -14.560707      -396.2170 
   8   1.0000     -10.506113      -285.8859 
   9   1.0000     -10.505809      -285.8776 
  10   1.0000     -10.482591      -285.2458 
  11   1.0000     -10.481242      -285.2091 
  12   1.0000     -10.449474      -284.3446 
  13   1.0000     -10.441977      -284.1406 
  14   1.0000     -10.406683      -283.1803 
  15   1.0000     -10.403092      -283.0825 
  16   1.0000     -10.379677      -282.4454 
  17   1.0000     -10.376246      -282.3520 
  18   1.0000      -1.220721       -33.2175 
  19   1.0000      -1.216614       -33.1058 
  20   1.0000      -1.194630       -32.5075 
  21   1.0000      -1.192418       -32.4474 
  22   1.0000      -1.121523       -30.5182 
  23   1.0000      -1.095069       -29.7984 
  24   1.0000      -1.065554       -28.9952 
  25   1.0000      -1.055226       -28.7142 
  26   1.0000      -0.994258       -27.0551 
  27   1.0000      -0.935338       -25.4518 
  28   1.0000      -0.890601       -24.2345 
  29   1.0000      -0.835955       -22.7475 
  30   1.0000      -0.821973       -22.3670 
  31   1.0000      -0.797045       -21.6887 
  32   1.0000      -0.785449       -21.3732 
  33   1.0000      -0.781026       -21.2528 
  34   1.0000      -0.705183       -19.1890 
  35   1.0000      -0.691324       -18.8119 
  36   1.0000      -0.686626       -18.6840 
  37   1.0000      -0.668009       -18.1775 
  38   1.0000      -0.651555       -17.7297 
  39   1.0000      -0.633502       -17.2385 
  40   1.0000      -0.619223       -16.8499 
  41   1.0000      -0.594961       -16.1897 
  42   1.0000      -0.589454       -16.0399 
  43   1.0000      -0.583432       -15.8760 
  44   1.0000      -0.576937       -15.6993 
  45   1.0000      -0.566506       -15.4154 
  46   1.0000      -0.563150       -15.3241 
  47   1.0000      -0.562738       -15.3129 
  48   1.0000      -0.551357       -15.0032 
  49   1.0000      -0.545148       -14.8342 
  50   1.0000      -0.539568       -14.6824 
  51   1.0000      -0.536930       -14.6106 
  52   1.0000      -0.531915       -14.4742 
  53   1.0000      -0.515283       -14.0216 
  54   1.0000      -0.507911       -13.8210 
  55   1.0000      -0.503602       -13.7037 
  56   1.0000      -0.490098       -13.3362 
  57   1.0000      -0.419524       -11.4158 
  58   1.0000      -0.417204       -11.3527 
  59   1.0000      -0.407493       -11.0885 
  60   1.0000      -0.394275       -10.7288 
  61   1.0000      -0.390023       -10.6131 
  62   1.0000      -0.388218       -10.5640 
  63   1.0000      -0.385235       -10.4828 
  64   1.0000      -0.375673       -10.2226 
  65   0.0000      -0.068230        -1.8566 
  66   0.0000      -0.026076        -0.7096 
  67   0.0000       0.006271         0.1706 
  68   0.0000       0.027986         0.7615 
  69   0.0000       0.032591         0.8869 
  70   0.0000       0.036181         0.9845 
  71   0.0000       0.055076         1.4987 
  72   0.0000       0.057582         1.5669 
  73   0.0000       0.062108         1.6901 
  74   0.0000       0.064049         1.7429 
  75   0.0000       0.065426         1.7803 
*Only the first 10 virtual orbitals were printed.

                    ********************************
                    * MULLIKEN POPULATION ANALYSIS *
                    ********************************

--------------------------------------------
MULLIKEN ATOMIC CHARGES AND SPIN POPULATIONS
--------------------------------------------
   0 O :   -0.685839    0.133860
   1 O :   -0.653914    0.119571
   2 O :   -0.658269   -0.001240
   3 O :   -0.647197    0.012937
   4 N :   -0.214966    0.022815
   5 N :   -0.351084    0.054436
   6 N :   -0.026084    0.035560
   7 N :    0.064872    0.012188
   8 C :   -0.247623    0.550538
   9 C :    0.246394    0.464497
  10 C :    1.185121    0.037534
  11 C :    0.388438    0.174447
  12 C :   -1.665815   -0.009982
  13 C :   -1.543259    0.008184
  14 C :    0.682338    0.109438
  15 C :    0.215083    0.146799
  16 C :    0.450110   -0.008944
  17 C :    0.339475   -0.004727
  18 H :    0.336916    0.018390
  19 H :    0.638545    0.030698
  20 H :    0.260936    0.031671
  21 H :    0.357827   -0.000681
  22 H :    0.388636    0.017777
  23 H :    0.340412    0.024774
  24 H :    0.226580    0.007701
  25 H :    0.382227    0.011292
  26 H :    0.033401   -0.002166
  27 H :    0.104417    0.002744
  28 H :    0.021964   -0.000796
  29 H :    0.030356    0.000683
Sum of atomic charges         :   -0.0000000
Sum of atomic spin populations:    2.0000000

-----------------------------------------------------
MULLIKEN REDUCED ORBITAL CHARGES AND SPIN POPULATIONS
-----------------------------------------------------
CHARGE
  0 O s       :     4.097026  s :     4.097026
      pz      :     1.645653  p :     4.554445
      px      :     1.359811
      py      :     1.548980
      dz2     :     0.003165  d :     0.032456
      dxz     :     0.004327
      dyz     :     0.005157
      dx2y2   :     0.012304
      dxy     :     0.007503
      f0      :     0.000191  f :     0.001912
      f+1     :     0.000247
      f-1     :     0.000140
      f+2     :     0.000107
      f-2     :     0.000339
      f+3     :     0.000494
      f-3     :     0.000395

  1 O s       :     4.092406  s :     4.092406
      pz      :     1.325064  p :     4.529703
      px      :     1.571638
      py      :     1.633002
      dz2     :     0.007771  d :     0.029879
      dxz     :     0.011080
      dyz     :     0.010180
      dx2y2   :     0.000720
      dxy     :     0.000127
      f0      :     0.000594  f :     0.001926
      f+1     :     0.000542
      f-1     :     0.000515
      f+2     :     0.000149
      f-2     :     0.000119
      f+3     :     0.000003
      f-3     :     0.000004

  2 O s       :     4.070060  s :     4.070060
      pz      :     1.511838  p :     4.554983
      px      :     1.671568
      py      :     1.371577
      dz2     :     0.006326  d :     0.031262
      dxz     :     0.004635
      dyz     :     0.007237
      dx2y2   :     0.008538
      dxy     :     0.004527
      f0      :     0.000193  f :     0.001964
      f+1     :     0.000092
      f-1     :     0.000485
      f+2     :     0.000390
      f-2     :     0.000354
      f+3     :     0.000202
      f-3     :     0.000248

  3 O s       :     4.070798  s :     4.070798
      pz      :     1.785572  p :     4.546387
      px      :     1.339755
      py      :     1.421060
      dz2     :     0.003228  d :     0.028067
      dxz     :     0.002344
      dyz     :     0.000885
      dx2y2   :     0.012875
      dxy     :     0.008735
      f0      :     0.000228  f :     0.001944
      f+1     :     0.000243
      f-1     :     0.000143
      f+2     :     0.000067
      f-2     :     0.000300
      f+3     :     0.000560
      f-3     :     0.000403

  4 N s       :     3.659552  s :     3.659552
      pz      :     1.178374  p :     3.504532
      px      :     1.208940
      py      :     1.117219
      dz2     :     0.028526  d :     0.047319
      dxz     :     0.008695
      dyz     :     0.004771
      dx2y2   :     0.004670
      dxy     :     0.000656
      f0      :     0.000535  f :     0.003563
      f+1     :     0.000530
      f-1     :     0.000641
      f+2     :     0.000710
      f-2     :     0.000607
      f+3     :     0.000342
      f-3     :     0.000198

  5 N s       :     3.724544  s :     3.724544
      pz      :     1.028195  p :     3.599608
      px      :     1.069070
      py      :     1.502343
      dz2     :     0.002740  d :     0.023808
      dxz     :     0.007782
      dyz     :     0.002620
      dx2y2   :     0.012950
      dxy     :    -0.002285
      f0      :     0.000400  f :     0.003124
      f+1     :     0.000276
      f-1     :     0.000442
      f+2     :     0.000448
      f-2     :     0.000430
      f+3     :     0.000550
      f-3     :     0.000577

  6 N s       :     3.495437  s :     3.495437
      pz      :     1.154188  p :     3.452792
      px      :     1.177754
      py      :     1.120850
      dz2     :     0.004980  d :     0.074161
      dxz     :     0.007133
      dyz     :     0.024008
      dx2y2   :     0.027473
      dxy     :     0.010568
      f0      :     0.000310  f :     0.003693
      f+1     :     0.000245
      f-1     :     0.000550
      f+2     :     0.000429
      f-2     :     0.000719
      f+3     :     0.000736
      f-3     :     0.000704

  7 N s       :     3.442911  s :     3.442911
      pz      :     0.957023  p :     3.427856
      px      :     1.232144
      py      :     1.238689
      dz2     :     0.023220  d :     0.060757
      dxz     :     0.005182
      dyz     :     0.004085
      dx2y2   :     0.007018
      dxy     :     0.021252
      f0      :     0.000547  f :     0.003603
      f+1     :     0.000607
      f-1     :     0.000390
      f+2     :     0.000301
      f-2     :     0.000679
      f+3     :     0.000553
      f-3     :     0.000527

  8 C s       :     3.840365  s :     3.840365
      pz      :     0.670848  p :     2.244743
      px      :     0.798302
      py      :     0.775594
      dz2     :     0.055108  d :     0.153007
      dxz     :    -0.017996
      dyz     :    -0.054439
      dx2y2   :     0.183773
      dxy     :    -0.013438
      f0      :     0.001052  f :     0.009507
      f+1     :     0.001335
      f-1     :     0.001259
      f+2     :     0.001248
      f-2     :     0.001739
      f+3     :     0.001768
      f-3     :     0.001105

  9 C s       :     3.639038  s :     3.639038
      pz      :     0.689087  p :     1.945303
      px      :     0.889264
      py      :     0.366953
      dz2     :    -0.073641  d :     0.161060
      dxz     :     0.117988
      dyz     :     0.019252
      dx2y2   :     0.060715
      dxy     :     0.036747
      f0      :     0.001757  f :     0.008204
      f+1     :     0.000825
      f-1     :     0.001493
      f+2     :     0.001318
      f-2     :     0.000771
      f+3     :     0.001134
      f-3     :     0.000907

 10 C s       :     2.773614  s :     2.773614
      pz      :     0.787028  p :     1.955947
      px      :     0.861658
      py      :     0.307261
      dz2     :     0.049613  d :     0.073998
      dxz     :     0.027145
      dyz     :    -0.040518
      dx2y2   :    -0.006364
      dxy     :     0.044122
      f0      :     0.001214  f :     0.011321
      f+1     :     0.000595
      f-1     :     0.002362
      f+2     :     0.001277
      f-2     :     0.002009
      f+3     :     0.002127
      f-3     :     0.001737

 11 C s       :     3.415672  s :     3.415672
      pz      :     0.808167  p :     2.086658
      px      :     0.380054
      py      :     0.898436
      dz2     :     0.011373  d :     0.098624
      dxz     :     0.027763
      dyz     :     0.119856
      dx2y2   :    -0.090920
      dxy     :     0.030552
      f0      :     0.001292  f :     0.010608
      f+1     :     0.001410
      f-1     :     0.001252
      f+2     :     0.000819
      f-2     :     0.001007
      f+3     :     0.002328
      f-3     :     0.002499

 12 C s       :     3.937586  s :     3.937586
      pz      :     1.127330  p :     3.598112
      px      :     1.380312
      py      :     1.090471
      dz2     :     0.050201  d :     0.127157
      dxz     :     0.009686
      dyz     :     0.000615
      dx2y2   :     0.048009
      dxy     :     0.018646
      f0      :     0.000278  f :     0.002960
      f+1     :     0.000312
      f-1     :     0.000599
      f+2     :     0.000671
      f-2     :     0.000412
      f+3     :     0.000343
      f-3     :     0.000344

 13 C s       :     3.930658  s :     3.930658
      pz      :     1.360104  p :     3.503856
      px      :     1.223556
      py      :     0.920196
      dz2     :     0.027893  d :     0.105841
      dxz     :     0.012549
      dyz     :    -0.002187
      dx2y2   :     0.015115
      dxy     :     0.052473
      f0      :     0.000474  f :     0.002904
      f+1     :     0.000089
      f-1     :     0.000337
      f+2     :     0.000488
      f-2     :    -0.000022
      f+3     :     0.000887
      f-3     :     0.000650

 14 C s       :     3.259161  s :     3.259161
      pz      :     0.682846  p :     1.805821
      px      :     0.519484
      py      :     0.603491
      dz2     :     0.053906  d :     0.230898
      dxz     :     0.059185
      dyz     :     0.050438
      dx2y2   :     0.060078
      dxy     :     0.007291
      f0      :     0.002063  f :     0.021781
      f+1     :     0.002399
      f-1     :     0.003086
      f+2     :     0.002870
      f-2     :     0.003788
      f+3     :     0.004690
      f-3     :     0.002885

 15 C s       :     3.594685  s :     3.594685
      pz      :     0.635924  p :     1.944363
      px      :     0.644364
      py      :     0.664074
      dz2     :     0.013387  d :     0.224239
      dxz     :     0.069451
      dyz     :     0.064782
      dx2y2   :     0.047594
      dxy     :     0.029025
      f0      :     0.005164  f :     0.021631
      f+1     :     0.004343
      f-1     :     0.004791
      f+2     :     0.001556
      f-2     :     0.002454
      f+3     :     0.001551
      f-3     :     0.001770

 16 C s       :     3.323994  s :     3.323994
      pz      :     0.707898  p :     1.954817
      px      :     0.655961
      py      :     0.590958
      dz2     :     0.099630  d :     0.245404
      dxz     :     0.035181
      dyz     :     0.023252
      dx2y2   :     0.034701
      dxy     :     0.052641
      f0      :     0.003839  f :     0.025675
      f+1     :     0.002152
      f-1     :     0.004946
      f+2     :     0.003236
      f-2     :     0.004817
      f+3     :     0.003800
      f-3     :     0.002885

 17 C s       :     3.333802  s :     3.333802
      pz      :     0.718791  p :     2.047480
      px      :     0.637362
      py      :     0.691326
      dz2     :     0.024999  d :     0.253867
      dxz     :     0.088279
      dyz     :     0.068052
      dx2y2   :     0.073459
      dxy     :    -0.000922
      f0      :     0.005131  f :     0.025377
      f+1     :     0.003142
      f-1     :     0.002896
      f+2     :     0.002997
      f-2     :     0.004686
      f+3     :     0.004023
      f-3     :     0.002501

 18 H s       :     0.640307  s :     0.640307
      pz      :     0.010545  p :     0.019953
      px      :     0.001254
      py      :     0.008154
      dz2     :     0.000735  d :     0.002824
      dxz     :     0.000950
      dyz     :     0.000974
      dx2y2   :     0.000048
      dxy     :     0.000118

 19 H s       :     0.368455  s :     0.368455
      pz      :    -0.010564  p :    -0.009951
      px      :    -0.017061
      py      :     0.017673
      dz2     :     0.000979  d :     0.002952
      dxz     :     0.000432
      dyz     :     0.000487
      dx2y2   :     0.000485
      dxy     :     0.000569

 20 H s       :     0.692209  s :     0.692209
      pz      :     0.016220  p :     0.044616
      px      :     0.017840
      py      :     0.010557
      dz2     :     0.000329  d :     0.002238
      dxz     :     0.000129
      dyz     :     0.000660
      dx2y2   :     0.000468
      dxy     :     0.000652

 21 H s       :     0.590390  s :     0.590390
      pz      :     0.024463  p :     0.049451
      px      :     0.021377
      py      :     0.003611
      dz2     :     0.000699  d :     0.002332
      dxz     :     0.000587
      dyz     :     0.000729
      dx2y2   :     0.000186
      dxy     :     0.000132

 22 H s       :     0.553419  s :     0.553419
      pz      :     0.020301  p :     0.055623
      px      :     0.027648
      py      :     0.007674
      dz2     :     0.000219  d :     0.002321
      dxz     :     0.000765
      dyz     :     0.000033
      dx2y2   :     0.000515
      dxy     :     0.000789

 23 H s       :     0.601271  s :     0.601271
      pz      :     0.034822  p :     0.056117
      px      :     0.019459
      py      :     0.001836
      dz2     :     0.000334  d :     0.002200
      dxz     :     0.000516
      dyz     :     0.000184
      dx2y2   :     0.000701
      dxy     :     0.000465

 24 H s       :     0.727679  s :     0.727679
[...]
=> NOW LEAVING ORCA_CIS


-------------------------------------------------------------------------------
                          DFT DISPERSION CORRECTION                            
                                                                               
                              DFTD3 V3.1  Rev 1                                
                          USING Becke-Johnson damping                          
-------------------------------------------------------------------------------
The WB97M functional is recognized
Active option DFTDOPT                   ...         4   

molecular C6(AA) [au] = 9532.207894 


            DFT-D V3
 parameters
 s6 scaling factor         :     1.0000 
 a1 scaling factor         :     0.5660 
 s8 scaling factor         :     0.3908 
 a2 scaling factor         :     3.1280 
 ad hoc parameters k1-k3   :    16.0000     1.3333    -4.0000 

 Edisp/kcal,au: -37.492536236915  -0.059748153275 
 E6   /kcal   : -30.065661450 
 E8   /kcal   :  -7.426874787 
 % E8         :  19.808942079 

-------------------------   ----------------
Dispersion correction           -0.059748153
-------------------------   ----------------


-------------------------   --------------------
FINAL SINGLE POINT ENERGY      -908.768129286562
-------------------------   --------------------

[1737014609.595765] [ohm:120357:0]        ib_iface.c:1059 UCX  ERROR ibv_create_cq(cqe=256) failed: Connection timed out
[1737014609.597998] [ohm:120364:0]        ib_iface.c:1059 UCX  ERROR ibv_create_cq(cqe=256) failed: Connection timed out
[1737014609.598161] [ohm:120355:0]        ib_iface.c:1059 UCX  ERROR ibv_create_cq(cqe=256) failed: Connection timed out
[1737014609.598184] [ohm:120366:0]        ib_iface.c:1059 UCX  ERROR ibv_create_cq(cqe=256) failed: Connection timed out
[1737014609.598174] [ohm:120363:0]        ib_iface.c:1059 UCX  ERROR ibv_create_cq(cqe=256) failed: Connection timed out
[1737014609.598428] [ohm:120360:0]        ib_iface.c:1059 UCX  ERROR ibv_create_cq(cqe=256) failed: Connection timed out
[1737014609.598516] [ohm:120368:0]        ib_iface.c:1059 UCX  ERROR ibv_create_cq(cqe=256) failed: Connection timed out
[1737014609.604250] [ohm:120377:0]        ib_iface.c:1059 UCX  ERROR ibv_create_cq(cqe=256) failed: Connection timed out
[1737014609.613217] [ohm:120406:0]        ib_iface.c:1059 UCX  ERROR ibv_create_cq(cqe=256) failed: Connection timed out
[1737014609.616840] [ohm:120375:0]        ib_iface.c:1059 UCX  ERROR ibv_create_cq(cqe=256) failed: Connection timed out
[1737014609.617117] [ohm:120361:0]        ib_iface.c:1059 UCX  ERROR ibv_create_cq(cqe=256) failed: Connection timed out
[1737014609.627748] [ohm:120372:0]        ib_iface.c:1059 UCX  ERROR ibv_create_cq(cqe=256) failed: Connection timed out
[1737014609.633907] [ohm:120358:0]        ib_iface.c:1059 UCX  ERROR ibv_create_cq(cqe=256) failed: Connection timed out
[1737014609.638842] [ohm:120379:0]        ib_iface.c:1059 UCX  ERROR ibv_create_cq(cqe=256) failed: Connection timed out
[1737014609.638955] [ohm:120362:0]        ib_iface.c:1059 UCX  ERROR ibv_create_cq(cqe=256) failed: Connection timed out
[1737014609.640194] [ohm:120373:0]        ib_iface.c:1059 UCX  ERROR ibv_create_cq(cqe=256) failed: Connection timed out
[1737014609.644584] [ohm:120382:0]        ib_iface.c:1059 UCX  ERROR ibv_create_cq(cqe=256) failed: Connection timed out
[1737014609.648089] [ohm:120390:0]        ib_iface.c:1059 UCX  ERROR ibv_create_cq(cqe=256) failed: Connection timed out
[1737014609.648089] [ohm:120371:0]        ib_iface.c:1059 UCX  ERROR ibv_create_cq(cqe=256) failed: Connection timed out
[1737014609.650702] [ohm:120376:0]        ib_iface.c:1059 UCX  ERROR ibv_create_cq(cqe=256) failed: Connection timed out
[1737014609.651233] [ohm:120369:0]        ib_iface.c:1059 UCX  ERROR ibv_create_cq(cqe=256) failed: Connection timed out
[1737014609.652302] [ohm:120365:0]        ib_iface.c:1059 UCX  ERROR ibv_create_cq(cqe=256) failed: Connection timed out
[1737014609.652615] [ohm:120402:0]        ib_iface.c:1059 UCX  ERROR ibv_create_cq(cqe=256) failed: Connection timed out
[1737014609.653784] [ohm:120393:0]        ib_iface.c:1059 UCX  ERROR ibv_create_cq(cqe=256) failed: Connection timed out
[1737014609.653825] [ohm:120370:0]        ib_iface.c:1059 UCX  ERROR ibv_create_cq(cqe=256) failed: Connection timed out
[1737014609.654649] [ohm:120367:0]        ib_iface.c:1059 UCX  ERROR ibv_create_cq(cqe=256) failed: Connection timed out
[1737014609.655660] [ohm:120356:0]        ib_iface.c:1059 UCX  ERROR ibv_create_cq(cqe=256) failed: Connection timed out
[1737014609.656643] [ohm:120359:0]        ib_iface.c:1059 UCX  ERROR ibv_create_cq(cqe=256) failed: Connection timed out
[1737014609.656802] [ohm:120378:0]        ib_iface.c:1059 UCX  ERROR ibv_create_cq(cqe=256) failed: Connection timed out
[1737014609.658378] [ohm:120374:0]        ib_iface.c:1059 UCX  ERROR ibv_create_cq(cqe=256) failed: Connection timed out
[1737014609.658733] [ohm:120354:0]        ib_iface.c:1059 UCX  ERROR ibv_create_cq(cqe=256) failed: Connection timed out
[1737014609.660595] [ohm:120392:0]        ib_iface.c:1059 UCX  ERROR ibv_create_cq(cqe=256) failed: Connection timed out


           ************************************************************
           *        Program running with 32 parallel MPI-processes    *
           *              working on a common directory               *
           ************************************************************

------------------------------------------------------------------------------
                              ORCA PROPERTY CALCULATIONS
------------------------------------------------------------------------------

GBWName                                 ... orca.gbw
Number of atoms                         ...     30
Number of basis functions               ...    882
Max core memory                         ...   1024 MB

Electric properties:
Dipole moment                           ... YES
Quadrupole moment                       ...  NO
Static polarizability (Dipole/Dipole)   ...  NO
Static polarizability (Dipole/Quad.)    ...  NO
Static polarizability (Quad./Quad.)     ...  NO
Static polarizability (Velocity)        ...  NO

Atomic electric properties:
Dipole moment                           ...  NO
Quadrupole moment                       ...  NO
Static polarizability                   ...  NO

Choice of electric origin               ... Center of mass
Position of electric origin             ...     0.001117    -0.015787     0.031259

General magnetic properties:
Magnetizability                         ...  NO

EPR properties:
g-Tensor (aka g-matrix)                 ...  NO
Zero-Field splitting spin-orbit         ...  NO
Zero-field splitting spin-spin          ...  NO
Hyperfine couplings                     ...  NO (   0 nuclei)
Quadrupole couplings                    ...  NO (   0 nuclei)
Contact density                         ...  NO (   0 nuclei)

NMR properties:
Chemical shifts                         ...  NO (   0 nuclei)
Spin-rotation constants                 ...  NO (   0 nuclei)
Spin-spin couplings                     ...  NO (   0 nuclei,    0 pairs)

Choice of magnetic origin               ... GIAO
Position of magnetic origin             ...     0.000000     0.000000     0.000000

Properties with geometric perturbations:
SCF Hessian                             ...  NO
IR spectrum                             ...  NO
VCD spectrum                            ...  NO
X-ray spectroscopy properties:
SCF XES/XAS/RIXS spectra                ...  NO


-------------
DIPOLE MOMENT
-------------

Method             : SCF
Type of density    : Electron Density
Multiplicity       :   3
Irrep              :   0
Energy             :  -908.7377288765919729 Eh
Relativity type    : 
Basis              : AO
                                X                 Y                 Z
Electronic contribution:     -2.113858655      -9.849514451      -6.734889214
Nuclear contribution   :      2.115382960      11.190040170       9.218803850
                        -----------------------------------------
Total Dipole Moment    :      0.001524305       1.340525719       2.483914636
                        -----------------------------------------
Magnitude (a.u.)       :      2.822559732
Magnitude (Debye)      :      7.174376683



--------------------
Rotational spectrum 
--------------------
 
Rotational constants in cm-1:             0.020241             0.014259             0.012488 
Rotational constants in MHz :           606.806077           427.484007           374.367603 

Dipole components along the rotational axes: 
x,y,z [a.u.] :     0.342977     2.040922     1.919336 
x,y,z [Debye]:     0.871779     5.187610     4.878563 

 

-------------
DIPOLE MOMENT
-------------

Method             : TDA/CIS
Type of density    : Electron Density
Level              : Relaxed density
State              :   2
Multiplicity       :   3
Irrep              :   0
Energy             :     0.0000000000000000 Eh
Relativity type    : 
Basis              : AO
                                X                 Y                 Z
Electronic contribution:     -2.183045754      -9.783414433      -6.650072953
Nuclear contribution   :      2.115382960      11.190040170       9.218803850
                        -----------------------------------------
Total Dipole Moment    :     -0.067662795       1.406625737       2.568730897
                        -----------------------------------------
Magnitude (a.u.)       :      2.929428722
Magnitude (Debye)      :      7.446016067



--------------------
Rotational spectrum 
--------------------
 
Rotational constants in cm-1:             0.020241             0.014259             0.012488 
Rotational constants in MHz :           606.806077           427.484007           374.367603 

Dipole components along the rotational axes: 
x,y,z [a.u.] :     0.288047     2.138106     1.981687 
x,y,z [Debye]:     0.732158     5.434633     5.037049 

 

Dipole moment calculation done in   0.1 sec 

Maximum memory used throughout the entire PROP-calculation: 83.1 MB
[1737014610.951385] [ohm:120537:0]        ib_iface.c:1059 UCX  ERROR ibv_create_cq(cqe=256) failed: Connection timed out
[1737014610.951725] [ohm:120521:0]        ib_iface.c:1059 UCX  ERROR ibv_create_cq(cqe=256) failed: Connection timed out
[1737014610.951789] [ohm:120528:0]        ib_iface.c:1059 UCX  ERROR ibv_create_cq(cqe=256) failed: Connection timed out
[1737014610.967673] [ohm:120524:0]        ib_iface.c:1059 UCX  ERROR ibv_create_cq(cqe=256) failed: Connection timed out
[1737014610.972264] [ohm:120540:0]        ib_iface.c:1059 UCX  ERROR ibv_create_cq(cqe=256) failed: Connection timed out
[1737014610.986833] [ohm:120534:0]        ib_iface.c:1059 UCX  ERROR ibv_create_cq(cqe=256) failed: Connection timed out
[1737014610.986831] [ohm:120570:0]        ib_iface.c:1059 UCX  ERROR ibv_create_cq(cqe=256) failed: Connection timed out
[1737014610.988196] [ohm:120548:0]        ib_iface.c:1059 UCX  ERROR ibv_create_cq(cqe=256) failed: Connection timed out
[1737014610.988734] [ohm:120547:0]        ib_iface.c:1059 UCX  ERROR ibv_create_cq(cqe=256) failed: Connection timed out
[1737014610.989603] [ohm:120529:0]        ib_iface.c:1059 UCX  ERROR ibv_create_cq(cqe=256) failed: Connection timed out
[1737014610.992708] [ohm:120557:0]        ib_iface.c:1059 UCX  ERROR ibv_create_cq(cqe=256) failed: Connection timed out
[1737014610.996712] [ohm:120565:0]        ib_iface.c:1059 UCX  ERROR ibv_create_cq(cqe=256) failed: Connection timed out
[1737014610.996784] [ohm:120541:0]        ib_iface.c:1059 UCX  ERROR ibv_create_cq(cqe=256) failed: Connection timed out
[1737014611.002245] [ohm:120539:0]        ib_iface.c:1059 UCX  ERROR ibv_create_cq(cqe=256) failed: Connection timed out
[1737014611.004818] [ohm:120580:0]        ib_iface.c:1059 UCX  ERROR ibv_create_cq(cqe=256) failed: Connection timed out
[1737014611.007824] [ohm:120532:0]        ib_iface.c:1059 UCX  ERROR ibv_create_cq(cqe=256) failed: Connection timed out
[1737014611.009568] [ohm:120542:0]        ib_iface.c:1059 UCX  ERROR ibv_create_cq(cqe=256) failed: Connection timed out
[1737014611.009614] [ohm:120575:0]        ib_iface.c:1059 UCX  ERROR ibv_create_cq(cqe=256) failed: Connection timed out
[1737014611.012303] [ohm:120544:0]        ib_iface.c:1059 UCX  ERROR ibv_create_cq(cqe=256) failed: Connection timed out
[1737014611.012651] [ohm:120536:0]        ib_iface.c:1059 UCX  ERROR ibv_create_cq(cqe=256) failed: Connection timed out
[1737014611.014869] [ohm:120545:0]        ib_iface.c:1059 UCX  ERROR ibv_create_cq(cqe=256) failed: Connection timed out
[1737014611.014850] [ohm:120522:0]        ib_iface.c:1059 UCX  ERROR ibv_create_cq(cqe=256) failed: Connection timed out
[1737014611.014945] [ohm:120538:0]        ib_iface.c:1059 UCX  ERROR ibv_create_cq(cqe=256) failed: Connection timed out
[1737014611.015780] [ohm:120531:0]        ib_iface.c:1059 UCX  ERROR ibv_create_cq(cqe=256) failed: Connection timed out
[1737014611.016250] [ohm:120555:0]        ib_iface.c:1059 UCX  ERROR ibv_create_cq(cqe=256) failed: Connection timed out
[1737014611.016637] [ohm:120530:0]        ib_iface.c:1059 UCX  ERROR ibv_create_cq(cqe=256) failed: Connection timed out
[1737014611.016990] [ohm:120526:0]        ib_iface.c:1059 UCX  ERROR ibv_create_cq(cqe=256) failed: Connection timed out
[1737014611.017715] [ohm:120523:0]        ib_iface.c:1059 UCX  ERROR ibv_create_cq(cqe=256) failed: Connection timed out
[1737014611.017910] [ohm:120535:0]        ib_iface.c:1059 UCX  ERROR ibv_create_cq(cqe=256) failed: Connection timed out
[1737014611.018103] [ohm:120525:0]        ib_iface.c:1059 UCX  ERROR ibv_create_cq(cqe=256) failed: Connection timed out
[1737014611.018740] [ohm:120533:0]        ib_iface.c:1059 UCX  ERROR ibv_create_cq(cqe=256) failed: Connection timed out
[1737014611.018823] [ohm:120527:0]        ib_iface.c:1059 UCX  ERROR ibv_create_cq(cqe=256) failed: Connection timed out

--------------------------------
SUGGESTED CITATIONS FOR THIS RUN
--------------------------------

Below you find a list of papers that are relevant to this ORCA run
We neither can nor want to force you to cite these papers, but we appreciate if you do
You receive ORCA, which is the product of decades of hard work by many enthusiastic individuals, for free
The only thing we kindly ask in return is that you cite our papers,
We deeply appreciate it, if you show your appreciation for ORCA by not just citing the generic ORCA reference.

Please note that relegating all ORCA citations to the supporting information does *not* help us.
SI sections are not indexed - citations you put there will not count into any citation statistics
But we need these citations in order to attract the funding resources that allow us to do what we are doing

Therefore, if you are a happy ORCA user, please consider citing a few of the papers listed below in the main body of your paper

In addition to the list printed below, the program has created the file orca.bibtex that contains the list in bibtex format
You can import this file easily into all common literature databanks and citation aid programs


List of essential papers. We consider these as the minimum necessary citations

  1. Neese,F.
     Software update: the ORCA program system, version 5.0
     WIRES Comput. Molec. Sci., 2022 12(1)e1606
     doi.org/10.1002/wcms.1606

List of papers to cite with high priority. The work reported in these papers was absolutely
necessary for this run to complete.
Our perspective: the developers of density functionals and basis sets usually get cited in chemistry papers
Good! But without the algorithms to do something with them, the functionals or basis sets would not do anything.
Hence, in our opinion, the algorithm design and method developments papers are equally worthy of getting cited

  1. Neese,F.; Olbrich,G.
     Efficient use of the resolution of the identity approximation in time-dependent density functional calculations with hybrid density functionals
     Chem. Phys. Lett., 2002 362 170-178
     doi.org/10.1016/s0009-2614(02)01053-9
  2. Neese,F.
     An improvement of the resolution of the identity approximation for the formation of the Coulomb matrix
     J. Comp. Chem., 2003 24(14)1740-1747
     doi.org/10.1002/jcc.10318
  3. Neese,F.; Wennmohs,F.; Hansen,A.; Becker,U.
     Efficient, approximate and parallel Hartree-Fock and hybrid DFT calculations. A 'chain-of-spheres' algorithm for the Hartree-Fock exchange
     Chem. Phys., 2009 356(1-3)98-109
     doi.org/10.1016/j.chemphys.2008.10.036
  4. Petrenko,T.; Kossmann,S.; Neese,F.
     Efficient time-dependent density functional theory approximations for hybrid density functionals: Analytical gradients and parallelization
     J. Chem. Phys., 2011 134 054116
     doi.org/10.1063/1.3533441
  5. Helmich-Paris,B.; de Souza,B.; Neese,F.; Izsák,R.
     An improved chain of spheres for exchange algorithm
     J. Chem. Phys., 2021 155 104109
     doi.org/doi: 10.1063/5.0058766.
  6. Neese,F.
     The SHARK Integral Generation and Digestion System
     J. Comp. Chem., 2022  1-16
     doi.org/10.1002/jcc.26942
  7. Lehtola,S.; Steigemann,C.; Oliveira,M.; Marques,M.
     Recent developments in Libxc - A comprehensive library of functionals for density functional theory
     Software X, 2018 7 
     doi.org/10.1016/j.softx.2017.11.002
  8. Grimme,S.; Antony,J.; Ehrlich,S.; Krieg,H.
     A consistent and accurate ab initio parametrization of density functional dispersion correction (DFT-D) for the 94 elements H-Pu
     J. Chem. Phys., 2010 132 154104-XXXX
     doi.org/10.1063/1.3382344
  9. Grimme,S.; Ehrlich,S.; Goerigk,L.
     Effect of the damping function in dispersion corrected density functional theory
     J. Comput. Chem., 2011 32(7)1456-1465
     doi.org/10.1002/jcc.21759

List of suggested additional citations. These are papers that are important in the 'surrounding' of 
of this run, or papers that preceded the highly important papers. If you like your results we are grateful for a citation.

  1. Izsak,R.; Neese,F.
     An overlap fitted chain of spheres exchange method
     J. Chem. Phys., 2011 135 144105
     doi.org/10.1063/1.3646921
  2. Izsak,R.; Hansen,A.; Neese,F.
     The resolution of identity and chain of spheres approximations for the LPNO-CCSD singles Fock term
     Molec. Phys., 2012 110 2413-2417
     doi.org/10.1080/00268976.2012.687466
  3. Neese,F.
     The ORCA program system
     WIRES Comput. Molec. Sci., 2012 2(1)73-78
     doi.org/10.1002/wcms.81
  4. Izsak,R.; Neese,F.; Klopper,W.
     Robust fitting techniques in the chain of spheres approximation to the Fock exchange: The role of the complementary space
     J. Chem. Phys., 2013 139 
     doi.org/10.1063/1.4819264
  5. Neese,F.
     Software update: the ORCA program system, version 4.0
     WIRES Comput. Molec. Sci., 2018 8(1)1-6
     doi.org/10.1002/wcms.1327
  6. Neese,F.; Wennmohs,F.; Becker,U.; Riplinger,C.
     The ORCA quantum chemistry program package
     J. Chem. Phys., 2020 152 Art. No. L224108
     doi.org/10.1063/5.0004608

List of optional additional citations

  1. Neese,F.
     Approximate second-order SCF convergence for spin unrestricted wavefunctions
     Chem. Phys. Lett., 2000 325(1-3)93-98
     doi.org/10.1016/s0009-2614(00)00662-x

Timings for individual modules:

Sum of individual times          ...      351.546 sec (=   5.859 min)
Startup calculation              ...        4.329 sec (=   0.072 min)   1.2 %
SCF iterations                   ...      175.909 sec (=   2.932 min)  50.0 %
Property integrals               ...        2.096 sec (=   0.035 min)   0.6 %
Property calculations            ...        1.413 sec (=   0.024 min)   0.4 %
CIS module                       ...      167.799 sec (=   2.797 min)  47.7 %
                             ****ORCA TERMINATED NORMALLY****
TOTAL RUN TIME: 0 days 0 hours 5 minutes 52 seconds 500 msec
