
                                 *****************
                                 * O   R   C   A *
                                 *****************

                                            #,                                       
                                            ###                                      
                                            ####                                     
                                            #####                                    
                                            ######                                   
                                           ########,                                 
                                     ,,################,,,,,                         
                               ,,#################################,,                 
                          ,,##########################################,,             
                       ,#########################################, ''#####,          
                    ,#############################################,,   '####,        
                  ,##################################################,,,,####,       
                ,###########''''           ''''###############################       
              ,#####''   ,,,,##########,,,,          '''####'''          '####       
            ,##' ,,,,###########################,,,                        '##       
           ' ,,###''''                  '''############,,,                           
         ,,##''                                '''############,,,,        ,,,,,,###''
      ,#''                                            '''#######################'''  
     '                                                          ''''####''''         
             ,#######,   #######,   ,#######,      ##                                
            ,#'     '#,  ##    ##  ,#'     '#,    #''#        ,####,   ,####,        
            ##       ##  ##   ,#'  ##            #'  '#       #'       #'  '#        
            ##       ##  #######   ##           ,######,      #####,   #    #        
            '#,     ,#'  ##    ##  '#,     ,#' ,#      #,     #,   #   #,  ,#        
             '#######'   ##     ##  '#######'  #'      '#     '####' # '####'        



                #########################################################
                #                        -***-                          #
                #          Department of theory and spectroscopy        #
                #                                                       #
                #                      Frank Neese                      #
                #                                                       #
                #     Directorship, Architecture, Infrastructure        #
                #                    SHARK, DRIVERS                     #
                #        Core code/Algorithms in most modules           #
                #                                                       #
                #        Max Planck Institute fuer Kohlenforschung      #
                #                Kaiser Wilhelm Platz 1                 #
                #                 D-45470 Muelheim/Ruhr                 #
                #                      Germany                          #
                #                                                       #
                #                  All rights reserved                  #
                #                        -***-                          #
                #########################################################


                         Program Version 6.0.0  -   RELEASE  -


 With contributions from (in alphabetic order):
   Daniel Aravena         : Magnetic Suceptibility
   Michael Atanasov       : Ab Initio Ligand Field Theory (pilot matlab implementation)
   Alexander A. Auer      : GIAO ZORA, VPT2 properties, NMR spectrum
   Ute Becker             : All parallelization in ORCA, NUMFREQ, NUMCALC
   Giovanni Bistoni       : ED, misc. LED, open-shell LED, HFLD
   Martin Brehm           : Molecular dynamics
   Dmytro Bykov           : pre 5.0 version of the SCF Hessian
   Marcos Casanova-Páez   : Triplet and SCS-CIS(D). UHF-(DLPNO)-IP/EA/STEOM-CCSD. UHF-CVS-IP/STEOM-CCSD
   Vijay G. Chilkuri      : MRCI spin determinant printing, contributions to CSF-ICE
   Pauline Colinet        : FMM embedding
   Dipayan Datta          : RHF DLPNO-CCSD density
   Achintya Kumar Dutta   : EOM-CC, STEOM-CC
   Nicolas Foglia         : Exact transition moments, OPA infrastructure, MCD improvements
   Dmitry Ganyushin       : Spin-Orbit,Spin-Spin,Magnetic field MRCI
   Miquel Garcia          : C-PCM and meta-GGA Hessian, CCSD/C-PCM, Gaussian charge scheme
   Tiago L. C. Gouveia    : GS-ROHF, GS-ROCIS
   Yang Guo               : DLPNO-NEVPT2, F12-NEVPT2, CIM, IAO-localization
   Andreas Hansen         : Spin unrestricted coupled pair/coupled cluster methods
   Ingolf Harden          : AUTO-CI MPn and infrastructure 
   Benjamin Helmich-Paris : MC-RPA, TRAH-(SCF,CASSCF), AVAS, COSX integrals, SCF dyn. polar.
   Lee Huntington         : MR-EOM, pCC
   Robert Izsak           : Overlap fitted RIJCOSX, COSX-SCS-MP3, EOM
   Riya Kayal             : Wick's Theorem for AUTO-CI, AUTO-CI UHF-CCSDT
   Emily Kempfer          : AUTO-CI, RHF CISDT and CCSDT
   Christian Kollmar      : KDIIS, OOCD, Brueckner-CCSD(T), CCSD density, CASPT2, CASPT2-K, improved NEVPT2
   Axel Koslowski         : Symmetry handling
   Simone Kossmann        : Meta GGA functionals, TD-DFT gradient, OOMP2, (MP2 Hessian; deprecated post 5.0)
   Lucas Lang             : DCDCAS
   Marvin Lechner         : AUTO-CI (C++ implementation), FIC-MRCC
   Spencer Leger          : CASSCF response
   Dagmar Lenk            : GEPOL surface, SMD, ORCA-2-JSON
   Dimitrios Liakos       : Extrapolation schemes; Compound Job, initial MDCI parallelization
   Dimitrios Manganas     : Further ROCIS development; embedding schemes. LFT, Crystal Embedding
   Dimitrios Pantazis     : SARC Basis sets
   Anastasios Papadopoulos: AUTO-CI, single reference methods and gradients
   Taras Petrenko         : pre 6.0 DFT Hessian and TD-DFT gradient, (ASA, deprecated), ECA, 1-Electron XAS/XES, NRVS
   Peter Pinski           : DLPNO-MP2, DLPNO-MP2 Gradient
   Christoph Reimann      : Effective Core Potentials
   Marius Retegan         : Local ZFS, SOC
   Christoph Riplinger    : Optimizer, TS searches, QM/MM, DLPNO-CCSD(T), (RO)-DLPNO pert. Triples
   Michael Roemelt        : Original ROCIS implementation
   Masaaki Saitow         : Open-shell DLPNO-CCSD energy and density
   Barbara Sandhoefer     : DKH picture change effects
   Kantharuban Sivalingam : CASSCF convergence/infrastructure, NEVPT2 and variants, FIC-MRCI
   Bernardo de Souza      : ESD, SOC TD-DFT
   Georgi Stoychev        : AutoAux, RI-MP2 NMR, DLPNO-MP2 response, X2C
   Van Anh Tran           : RI-MP2 g-tensors
   Willem Van den Heuvel  : Paramagnetic NMR
   Zikuan Wang            : NOTCH, Electric field optimization 
   Frank Wennmohs         : Technical directorship and infrastructure
   Hang Xu                : AUTO-CI-Response properties 


 We gratefully acknowledge several colleagues who have allowed us to
 interface, adapt or use parts of their codes:
   Stefan Grimme, W. Hujo, H. Kruse, P. Pracht,  : VdW corrections, initial TS optimization,
                  C. Bannwarth, S. Ehlert,         DFT functionals, gCP, sTDA/sTD-DF
                  L. Wittmann, M. Mueller
   Ed Valeev, F. Pavosevic, A. Kumar             : LibInt (2-el integral package), F12 methods
   Garnet Chan, S. Sharma, J. Yang, R. Olivares  : DMRG
   Ulf Ekstrom                                   : XCFun DFT Library
   Mihaly Kallay                                 : mrcc  (arbitrary order and MRCC methods)
   Frank Weinhold                                : gennbo (NPA and NBO analysis)
   Simon Mueller                                 : openCOSMO-RS
   Christopher J. Cramer and Donald G. Truhlar   : smd solvation model
   Lars Goerigk                                  : TD-DFT with DH, B97 family of functionals
   V. Asgeirsson, H. Jonsson                     : NEB implementation
   FAccTs GmbH                                   : IRC, NEB, NEB-TS, DLPNO-Multilevel, CI-OPT
                                                   MM, QMMM, 2- and 3-layer-ONIOM, Crystal-QMMM,
                                                   LR-CPCM, SF, NACMEs, symmetry and pop. for TD-DFT,
                                                   nearIR, NL-DFT gradient (VV10), updates on ESD,
                                                   ML-optimized integration grids, MBIS, APM,
                                                   GOAT, DOCKER, SOLVATOR, interface openCOSMO-RS
   S Lehtola, MJT Oliveira, MAL Marques          : LibXC Library
   Liviu Ungur et al                             : ANISO software


 Your calculation uses the libint2 library for the computation of 2-el integrals
 For citations please refer to: http://libint.valeyev.net

 Your ORCA version has been built with support for libXC version: 6.2.2
 For citations please refer to: https://libxc.gitlab.io

 This ORCA versions uses:
   CBLAS   interface :  Fast vector & matrix operations
   LAPACKE interface :  Fast linear algebra routines
   SCALAPACK package :  Parallel linear algebra routines
   Shared memory     :  Shared parallel matrices
   BLAS/LAPACK       :  OpenBLAS 0.3.27  USE64BITINT DYNAMIC_ARCH NO_AFFINITY Zen SINGLE_THREADED
        Core in use  :  Zen
   Copyright (c) 2011-2014, The OpenBLAS Project


Your calculation utilizes the atom-pairwise dispersion correction
with the Becke-Johnson damping scheme (D3BJ)


Warning: RI is on but no J-basis has been assigned. Assigning Def2/J (nothing to worry about!)
================================================================================

----- Orbital basis set information -----
Your calculation utilizes the basis: def2-TZVPPD
   F. Weigend and R. Ahlrichs, Phys. Chem. Chem. Phys. 7, 3297 (2005).
   D. Rappoport and F. Furche, J. Chem. Phys. 133, 134105 (2010)
   D. Rappoport, J. Chem. Phys. 155, 124102 (2021).

----- AuxJ basis set information -----
Your calculation utilizes the auxiliary basis: def2/J
   F. Weigend, Phys. Chem. Chem. Phys. 8, 1057 (2006).

================================================================================
                                        WARNINGS
                       Please study these warnings very carefully!
================================================================================

Using LibXC functional ID 531 : wB97M-V exchange-correlation functional
[ 1]  N. Mardirossian and M. Head-Gordon.,  J. Chem. Phys. 144, 214110 (2016)
Using LibXC functional ID 531 : wB97M-V exchange-correlation functional
[ 1]  N. Mardirossian and M. Head-Gordon.,  J. Chem. Phys. 144, 214110 (2016)

WARNING: B97M-V or wB97M-V functional requested.
  ===> : libXC variant has now been activated.
         Any manually given DFX/HFX/RangeSep scaling parameters are IGNORED!

Your calculation utilizes LibXC
 by S Lehtola, C Steigemann, MJT Oliveira & MAL Marques
Please cite in your paper:
 S Lehtola, C Steigemann, MJT Oliveira & MAL Marques, SoftwareX, 7, (2018), 1.
   


WARNING: your system is open-shell and RHF/RKS was chosen
  ===> : WILL SWITCH to UHF/UKS

INFO   : Checking CIS options ...

WARNING: CIS/ROCIS methods need fully converged wavefunctions
  ===> : Setting SCFConvForced true
         You can overwrite this default with %scf ConvForced false 


================================================================================
                                       INPUT FILE
================================================================================
NAME = orca.inp
|  1> ! Engrad def2-TZVPPD wB97M-D3BJ 
|  2> %pal nprocs 8 end%pal nprocs 64 end 
|  3> %tddft 
|  4>  Iroot 1 Nroots 3 
|  5> sf true 
|  6> end 
|  7> *xyz 0 3 
|  8> O   1.19067242 0.96830331 0.06232761
|  9> C   0.12328125 0.20288832 0.43171144
| 10> C   -0.09290918 -1.10037228 -0.30962476
| 11> H   -0.68860037 0.99544723 0.41122492
| 12> H   0.26047105 0.16254571 1.54899274
| 13> H   0.53738808 -1.87416901 0.08561984
| 14> H   -0.72917675 -1.20697082 -1.20302137
| 15> *
| 16> 
| 17>                          ****END OF INPUT****
================================================================================

                     *******************************
                     * Energy+Gradient Calculation *
                     *******************************

---------------------------------
CARTESIAN COORDINATES (ANGSTROEM)
---------------------------------
  O      1.190672    0.968303    0.062328
  C      0.123281    0.202888    0.431711
  C     -0.092909   -1.100372   -0.309625
  H     -0.688600    0.995447    0.411225
  H      0.260471    0.162546    1.548993
  H      0.537388   -1.874169    0.085620
  H     -0.729177   -1.206971   -1.203021

----------------------------
CARTESIAN COORDINATES (A.U.)
----------------------------
  NO LB      ZA    FRAG     MASS         X           Y           Z
   0 O     8.0000    0    15.999    2.250045    1.829828    0.117782
   1 C     6.0000    0    12.011    0.232968    0.383403    0.815816
   2 C     6.0000    0    12.011   -0.175573   -2.079402   -0.585106
   3 H     1.0000    0     1.008   -1.301266    1.881123    0.777102
   4 H     1.0000    0     1.008    0.492219    0.307167    2.927172
   5 H     1.0000    0     1.008    1.015516   -3.541666    0.161798
   6 H     1.0000    0     1.008   -1.377944   -2.280844   -2.273381

--------------------------------
INTERNAL COORDINATES (ANGSTROEM)
--------------------------------
 O      0   0   0     0.000000000000     0.00000000     0.00000000
 C      1   0   0     1.364415050700     0.00000000     0.00000000
 C      2   1   0     1.514861661990   117.50216007     0.00000000
 H      2   1   3     1.134777990717    99.38171448   229.77041380
 H      2   1   3     1.126395166332   101.14817605   130.16169073
 H      3   2   1     1.073431091944   110.86582896    81.69223337
 H      3   2   1     1.101978753027   124.21978046   267.90721578

---------------------------
INTERNAL COORDINATES (A.U.)
---------------------------
 O      0   0   0     0.000000000000     0.00000000     0.00000000
 C      1   0   0     2.578370778823     0.00000000     0.00000000
 C      2   1   0     2.862673671937   117.50216007     0.00000000
 H      2   1   3     2.144419625257    99.38171448   229.77041380
 H      2   1   3     2.128578382940   101.14817605   130.16169073
 H      3   2   1     2.028490787410   110.86582896    81.69223337
 H      3   2   1     2.082438048621   124.21978046   267.90721578

---------------------
BASIS SET INFORMATION
---------------------
There are 3 groups of distinct atoms

 Group   1 Type O   : 12s7p3d1f contracted to 6s4p3d1f pattern {621111/4111/111/1}
 Group   2 Type C   : 12s6p3d1f contracted to 6s3p3d1f pattern {621111/411/111/1}
 Group   3 Type H   : 5s3p1d contracted to 3s3p1d pattern {311/111/1}

Atom   0O    basis set group =>   1
Atom   1C    basis set group =>   2
Atom   2C    basis set group =>   2
Atom   3H    basis set group =>   3
Atom   4H    basis set group =>   3
Atom   5H    basis set group =>   3
Atom   6H    basis set group =>   3
---------------------------------
AUXILIARY/J BASIS SET INFORMATION
---------------------------------
There are 3 groups of distinct atoms

 Group   1 Type O   : 12s5p4d2f1g contracted to 6s4p3d1f1g pattern {711111/2111/211/2/1}
 Group   2 Type C   : 12s5p4d2f1g contracted to 6s4p3d1f1g pattern {711111/2111/211/2/1}
 Group   3 Type H   : 5s2p1d contracted to 3s1p1d pattern {311/2/1}

Atom   0O    basis set group =>   1
Atom   1C    basis set group =>   2
Atom   2C    basis set group =>   2
Atom   3H    basis set group =>   3
Atom   4H    basis set group =>   3
Atom   5H    basis set group =>   3
Atom   6H    basis set group =>   3
[1741608793.952166] [ohm:3260222:0]        ib_iface.c:1059 UCX  ERROR ibv_create_cq(cqe=256) failed: Connection timed out
[1741608793.952187] [ohm:3260220:0]        ib_iface.c:1059 UCX  ERROR ibv_create_cq(cqe=256) failed: Connection timed out
[1741608793.963071] [ohm:3260216:0]        ib_iface.c:1059 UCX  ERROR ibv_create_cq(cqe=256) failed: Connection timed out
[1741608793.969793] [ohm:3260219:0]        ib_iface.c:1059 UCX  ERROR ibv_create_cq(cqe=256) failed: Connection timed out
[1741608793.970632] [ohm:3260223:0]        ib_iface.c:1059 UCX  ERROR ibv_create_cq(cqe=256) failed: Connection timed out
[1741608793.979026] [ohm:3260270:0]        ib_iface.c:1059 UCX  ERROR ibv_create_cq(cqe=256) failed: Connection timed out
[1741608794.011711] [ohm:3260226:0]        ib_iface.c:1059 UCX  ERROR ibv_create_cq(cqe=256) failed: Connection timed out
[1741608794.022565] [ohm:3260241:0]        ib_iface.c:1059 UCX  ERROR ibv_create_cq(cqe=256) failed: Connection timed out
[1741608794.023509] [ohm:3260236:0]        ib_iface.c:1059 UCX  ERROR ibv_create_cq(cqe=256) failed: Connection timed out
[1741608794.024562] [ohm:3260319:0]        ib_iface.c:1059 UCX  ERROR ibv_create_cq(cqe=256) failed: Connection timed out
[1741608794.027882] [ohm:3260227:0]        ib_iface.c:1059 UCX  ERROR ibv_create_cq(cqe=256) failed: Connection timed out
[1741608794.043477] [ohm:3260246:0]        ib_iface.c:1059 UCX  ERROR ibv_create_cq(cqe=256) failed: Connection timed out
[1741608794.064781] [ohm:3260301:0]        ib_iface.c:1059 UCX  ERROR ibv_create_cq(cqe=256) failed: Connection timed out
[1741608794.070695] [ohm:3260295:0]        ib_iface.c:1059 UCX  ERROR ibv_create_cq(cqe=256) failed: Connection timed out
[1741608794.072097] [ohm:3260358:0]        ib_iface.c:1059 UCX  ERROR ibv_create_cq(cqe=256) failed: Connection timed out
[1741608794.079085] [ohm:3260335:0]        ib_iface.c:1059 UCX  ERROR ibv_create_cq(cqe=256) failed: Connection timed out
[1741608794.086540] [ohm:3260267:0]        ib_iface.c:1059 UCX  ERROR ibv_create_cq(cqe=256) failed: Connection timed out
[1741608794.096243] [ohm:3260365:0]        ib_iface.c:1059 UCX  ERROR ibv_create_cq(cqe=256) failed: Connection timed out
[1741608794.098417] [ohm:3260275:0]        ib_iface.c:1059 UCX  ERROR ibv_create_cq(cqe=256) failed: Connection timed out
[1741608794.102309] [ohm:3260274:0]        ib_iface.c:1059 UCX  ERROR ibv_create_cq(cqe=256) failed: Connection timed out
[1741608794.110305] [ohm:3260281:0]        ib_iface.c:1059 UCX  ERROR ibv_create_cq(cqe=256) failed: Connection timed out
[1741608794.146035] [ohm:3260251:0]        ib_iface.c:1059 UCX  ERROR ibv_create_cq(cqe=256) failed: Connection timed out
[1741608794.161027] [ohm:3260268:0]        ib_iface.c:1059 UCX  ERROR ibv_create_cq(cqe=256) failed: Connection timed out
[1741608794.162162] [ohm:3260356:0]        ib_iface.c:1059 UCX  ERROR ibv_create_cq(cqe=256) failed: Connection timed out
[1741608794.167223] [ohm:3260321:0]        ib_iface.c:1059 UCX  ERROR ibv_create_cq(cqe=256) failed: Connection timed out
[1741608794.168170] [ohm:3260224:0]        ib_iface.c:1059 UCX  ERROR ibv_create_cq(cqe=256) failed: Connection timed out
[1741608794.177731] [ohm:3260265:0]        ib_iface.c:1059 UCX  ERROR ibv_create_cq(cqe=256) failed: Connection timed out
[1741608794.184396] [ohm:3260269:0]        ib_iface.c:1059 UCX  ERROR ibv_create_cq(cqe=256) failed: Connection timed out
[1741608794.187422] [ohm:3260273:0]        ib_iface.c:1059 UCX  ERROR ibv_create_cq(cqe=256) failed: Connection timed out
[1741608794.190147] [ohm:3260217:0]        ib_iface.c:1059 UCX  ERROR ibv_create_cq(cqe=256) failed: Connection timed out
[1741608794.190452] [ohm:3260285:0]        ib_iface.c:1059 UCX  ERROR ibv_create_cq(cqe=256) failed: Connection timed out
[1741608794.192618] [ohm:3260271:0]        ib_iface.c:1059 UCX  ERROR ibv_create_cq(cqe=256) failed: Connection timed out
[1741608794.194433] [ohm:3260277:0]        ib_iface.c:1059 UCX  ERROR ibv_create_cq(cqe=256) failed: Connection timed out
[1741608794.204961] [ohm:3260315:0]        ib_iface.c:1059 UCX  ERROR ibv_create_cq(cqe=256) failed: Connection timed out
[1741608794.213631] [ohm:3260261:0]        ib_iface.c:1059 UCX  ERROR ibv_create_cq(cqe=256) failed: Connection timed out
[1741608794.218743] [ohm:3260248:0]        ib_iface.c:1059 UCX  ERROR ibv_create_cq(cqe=256) failed: Connection timed out
[1741608794.221094] [ohm:3260345:0]        ib_iface.c:1059 UCX  ERROR ibv_create_cq(cqe=256) failed: Connection timed out
[1741608794.230989] [ohm:3260257:0]        ib_iface.c:1059 UCX  ERROR ibv_create_cq(cqe=256) failed: Connection timed out
[1741608794.232115] [ohm:3260218:0]        ib_iface.c:1059 UCX  ERROR ibv_create_cq(cqe=256) failed: Connection timed out
[1741608794.233795] [ohm:3260266:0]        ib_iface.c:1059 UCX  ERROR ibv_create_cq(cqe=256) failed: Connection timed out
[1741608794.239214] [ohm:3260243:0]        ib_iface.c:1059 UCX  ERROR ibv_create_cq(cqe=256) failed: Connection timed out
[1741608794.241355] [ohm:3260263:0]        ib_iface.c:1059 UCX  ERROR ibv_create_cq(cqe=256) failed: Connection timed out
[1741608794.241400] [ohm:3260355:0]        ib_iface.c:1059 UCX  ERROR ibv_create_cq(cqe=256) failed: Connection timed out
[1741608794.243861] [ohm:3260225:0]        ib_iface.c:1059 UCX  ERROR ibv_create_cq(cqe=256) failed: Connection timed out
[1741608794.255239] [ohm:3260239:0]        ib_iface.c:1059 UCX  ERROR ibv_create_cq(cqe=256) failed: Connection timed out
[1741608794.265573] [ohm:3260305:0]        ib_iface.c:1059 UCX  ERROR ibv_create_cq(cqe=256) failed: Connection timed out
[1741608794.265813] [ohm:3260237:0]        ib_iface.c:1059 UCX  ERROR ibv_create_cq(cqe=256) failed: Connection timed out
[1741608794.267135] [ohm:3260299:0]        ib_iface.c:1059 UCX  ERROR ibv_create_cq(cqe=256) failed: Connection timed out
[1741608794.270791] [ohm:3260351:0]        ib_iface.c:1059 UCX  ERROR ibv_create_cq(cqe=256) failed: Connection timed out
[1741608794.277525] [ohm:3260360:0]        ib_iface.c:1059 UCX  ERROR ibv_create_cq(cqe=256) failed: Connection timed out
[1741608794.278081] [ohm:3260350:0]        ib_iface.c:1059 UCX  ERROR ibv_create_cq(cqe=256) failed: Connection timed out
[1741608794.279478] [ohm:3260221:0]        ib_iface.c:1059 UCX  ERROR ibv_create_cq(cqe=256) failed: Connection timed out
[1741608794.283884] [ohm:3260289:0]        ib_iface.c:1059 UCX  ERROR ibv_create_cq(cqe=256) failed: Connection timed out
[1741608794.284867] [ohm:3260332:0]        ib_iface.c:1059 UCX  ERROR ibv_create_cq(cqe=256) failed: Connection timed out
[1741608794.286973] [ohm:3260338:0]        ib_iface.c:1059 UCX  ERROR ibv_create_cq(cqe=256) failed: Connection timed out
[1741608794.287127] [ohm:3260324:0]        ib_iface.c:1059 UCX  ERROR ibv_create_cq(cqe=256) failed: Connection timed out
[1741608794.289179] [ohm:3260310:0]        ib_iface.c:1059 UCX  ERROR ibv_create_cq(cqe=256) failed: Connection timed out
[1741608794.289957] [ohm:3260311:0]        ib_iface.c:1059 UCX  ERROR ibv_create_cq(cqe=256) failed: Connection timed out
[1741608794.290389] [ohm:3260329:0]        ib_iface.c:1059 UCX  ERROR ibv_create_cq(cqe=256) failed: Connection timed out
[1741608794.291127] [ohm:3260341:0]        ib_iface.c:1059 UCX  ERROR ibv_create_cq(cqe=256) failed: Connection timed out
[1741608794.291256] [ohm:3260272:0]        ib_iface.c:1059 UCX  ERROR ibv_create_cq(cqe=256) failed: Connection timed out
[1741608794.292849] [ohm:3260304:0]        ib_iface.c:1059 UCX  ERROR ibv_create_cq(cqe=256) failed: Connection timed out
[1741608794.292863] [ohm:3260238:0]        ib_iface.c:1059 UCX  ERROR ibv_create_cq(cqe=256) failed: Connection timed out
[1741608794.293550] [ohm:3260254:0]        ib_iface.c:1059 UCX  ERROR ibv_create_cq(cqe=256) failed: Connection timed out


           ************************************************************
           *        Program running with 64 parallel MPI-processes    *
           *              working on a common directory               *
           ************************************************************
------------------------------------------------------------------------------
                             ORCA STARTUP CALCULATIONS
                           -- RI-GTO INTEGRALS CHOSEN --
------------------------------------------------------------------------------
------------------------------------------------------------------------------
                   ___                                                        
                  /   \      - P O W E R E D   B Y -                         
                 /     \                                                     
                 |  |  |   _    _      __       _____    __    __             
                 |  |  |  | |  | |    /  \     |  _  \  |  |  /  |          
                  \  \/   | |  | |   /    \    | | | |  |  | /  /          
                 / \  \   | |__| |  /  /\  \   | |_| |  |  |/  /          
                |  |  |   |  __  | /  /__\  \  |    /   |      \           
                |  |  |   | |  | | |   __   |  |    \   |  |\   \          
                \     /   | |  | | |  |  |  |  | |\  \  |  | \   \       
                 \___/    |_|  |_| |__|  |__|  |_| \__\ |__|  \__/        
                                                                              
                      - O R C A' S   B I G   F R I E N D -                    
                                      &                                       
                       - I N T E G R A L  F E E D E R -                       
                                                                              
 v1 FN, 2020, v2 2021, v3 2022-2024                                           
------------------------------------------------------------------------------


----------------------
SHARK INTEGRAL PACKAGE
----------------------

Number of atoms                             ...      7
Number of basis functions                   ...    182
Number of shells                            ...     68
Maximum angular momentum                    ...      3
Integral batch strategy                     ... SHARK/LIBINT Hybrid
RI-J (if used) integral strategy            ... SPLIT-RIJ (Revised 2003 algorithm where possible)
Printlevel                                  ...      1
Contraction scheme used                     ... SEGMENTED contraction
Prescreening option                         ... SCHWARTZ
   Thresh                                   ... 2.500e-11
   Tcut                                     ... 2.500e-12
   Tpresel                                  ... 2.500e-12 
Coulomb Range Separation                    ... NOT USED
Exchange Range Separation                   ... Long Range
   Mu parameter                             ... 3.000e-01
   Scaling (regular/separated)              ... 1.500e-01 8.500e-01
Multipole approximations                    ... NOT USED
Finite Nucleus Model                        ... NOT USED
CABS basis                                  ... NOT available
Auxiliary Coulomb fitting basis             ... AVAILABLE
   # of basis functions in Aux-J            ...    191
   # of shells in Aux-J                     ...     65
   Maximum angular momentum in Aux-J        ...      4
Auxiliary J/K fitting basis                 ... NOT available
Auxiliary Correlation fitting basis         ... NOT available
Auxiliary 'external' fitting basis          ... NOT available

Checking pre-screening integrals            ... done (  0.0 sec) Dimension = 68
Check shell pair data                       ... done (  0.0 sec)
Shell pair information
Shell pair cut-off parameter TPreSel        ...   2.5e-12
Total number of shell pairs                 ...      2346
Shell pairs after pre-screening             ...      2327
Total number of primitive shell pairs       ...      5434
Primitive shell pairs kept                  ...      4800
          la=0 lb=0:    455 shell pairs
          la=1 lb=0:    655 shell pairs
          la=1 lb=1:    253 shell pairs
          la=2 lb=0:    386 shell pairs
          la=2 lb=1:    286 shell pairs
          la=2 lb=2:     91 shell pairs
          la=3 lb=0:     90 shell pairs
          la=3 lb=1:     66 shell pairs
          la=3 lb=2:     39 shell pairs
          la=3 lb=3:      6 shell pairs

Calculating one electron integrals          ... done (  0.0 sec)
Calculating RI/J V-Matrix + Cholesky decomp.... done (  0.0 sec)
Calculating Nuclear repulsion               ... done (  0.0 sec) ENN=     67.107606414606 Eh

Diagonalization of the overlap matrix:
Smallest eigenvalue                        ... 2.751e-05
Time for diagonalization                   ...    0.004 sec
Threshold for overlap eigenvalues          ... 1.000e-07
Number of eigenvalues below threshold      ... 0
Time for construction of square roots      ...    0.003 sec
Total time needed                          ...    0.009 sec

-------------------
DFT GRID GENERATION
-------------------

General Integration Accuracy     IntAcc      ... 4.388
Radial Grid Type                 RadialGrid  ... OptM3 with GC (2021)
Angular Grid (max. ang.)         AngularGrid ... 4 (Lebedev-302)
Angular grid pruning method      GridPruning ... 4 (adaptive)
Weight generation scheme         WeightScheme... mBecke (2022)
Basis function cutoff            BFCut       ... 1.0000e-11
Integration weight cutoff        WCut        ... 1.0000e-14
Partially contracted basis set               ... off
Rotationally invariant grid construction     ... off
Angular grids for H and He will be reduced by one unit
Diffuse basis detected: some atoms will have their outermost
                        angular grid increased by 1.

Total number of grid points                  ...    33180
Total number of batches                      ...      521
Average number of points per batch           ...       63
Average number of grid points per atom       ...     4740

--------------------
COSX GRID GENERATION
--------------------

GRIDX 1
-------
General Integration Accuracy     IntAcc      ... 3.816
Radial Grid Type                 RadialGrid  ... OptM3 with GC (2021)
Angular Grid (max. ang.)         AngularGrid ... 1 (Lebedev-50)
Angular grid pruning method      GridPruning ... 4 (adaptive)
Weight generation scheme         WeightScheme... mBecke (2022)
Basis function cutoff            BFCut       ... 1.0000e-11
Integration weight cutoff        WCut        ... 1.0000e-14
Partially contracted basis set               ... on
Rotationally invariant grid construction     ... off
Angular grids for H and He will be reduced by one unit
Diffuse basis detected: some atoms will have their outermost
                        angular grid increased by 1.

Total number of grid points                  ...     4173
Total number of batches                      ...       37
Average number of points per batch           ...      112
Average number of grid points per atom       ...      596
UseSFitting                                  ... on

GRIDX 2
-------
General Integration Accuracy     IntAcc      ... 4.020
Radial Grid Type                 RadialGrid  ... OptM3 with GC (2021)
Angular Grid (max. ang.)         AngularGrid ... 2 (Lebedev-110)
Angular grid pruning method      GridPruning ... 4 (adaptive)
Weight generation scheme         WeightScheme... mBecke (2022)
Basis function cutoff            BFCut       ... 1.0000e-11
Integration weight cutoff        WCut        ... 1.0000e-14
Partially contracted basis set               ... on
Rotationally invariant grid construction     ... off
Angular grids for H and He will be reduced by one unit
Diffuse basis detected: some atoms will have their outermost
                        angular grid increased by 1.

Total number of grid points                  ...    10302
Total number of batches                      ...       83
Average number of points per batch           ...      124
Average number of grid points per atom       ...     1472
UseSFitting                                  ... on

GRIDX 3
-------
General Integration Accuracy     IntAcc      ... 4.338
Radial Grid Type                 RadialGrid  ... OptM3 with GC (2021)
Angular Grid (max. ang.)         AngularGrid ... 3 (Lebedev-194)
Angular grid pruning method      GridPruning ... 4 (adaptive)
Weight generation scheme         WeightScheme... mBecke (2022)
Basis function cutoff            BFCut       ... 1.0000e-11
Integration weight cutoff        WCut        ... 1.0000e-14
Partially contracted basis set               ... on
Rotationally invariant grid construction     ... off
Angular grids for H and He will be reduced by one unit
Diffuse basis detected: some atoms will have their outermost
                        angular grid increased by 1.

Total number of grid points                  ...    23140
Total number of batches                      ...      184
Average number of points per batch           ...      125
Average number of grid points per atom       ...     3306
UseSFitting                                  ... on
Initializing property integral containers    ... done (  0.0 sec)

SHARK setup successfully completed in   0.5 seconds

Maximum memory used throughout the entire STARTUP-calculation: 13.8 MB
[1741608796.556020] [ohm:3260563:0]        ib_iface.c:1059 UCX  ERROR ibv_create_cq(cqe=256) failed: Connection timed out
[1741608796.580336] [ohm:3260569:0]        ib_iface.c:1059 UCX  ERROR ibv_create_cq(cqe=256) failed: Connection timed out
[1741608796.581049] [ohm:3260553:0]        ib_iface.c:1059 UCX  ERROR ibv_create_cq(cqe=256) failed: Connection timed out
[1741608796.585214] [ohm:3260554:0]        ib_iface.c:1059 UCX  ERROR ibv_create_cq(cqe=256) failed: Connection timed out
[1741608796.587378] [ohm:3260565:0]        ib_iface.c:1059 UCX  ERROR ibv_create_cq(cqe=256) failed: Connection timed out
[1741608796.590292] [ohm:3260586:0]        ib_iface.c:1059 UCX  ERROR ibv_create_cq(cqe=256) failed: Connection timed out
[1741608796.591348] [ohm:3260556:0]        ib_iface.c:1059 UCX  ERROR ibv_create_cq(cqe=256) failed: Connection timed out
[1741608796.594862] [ohm:3260558:0]        ib_iface.c:1059 UCX  ERROR ibv_create_cq(cqe=256) failed: Connection timed out
[1741608796.597394] [ohm:3260555:0]        ib_iface.c:1059 UCX  ERROR ibv_create_cq(cqe=256) failed: Connection timed out
[1741608796.598083] [ohm:3260561:0]        ib_iface.c:1059 UCX  ERROR ibv_create_cq(cqe=256) failed: Connection timed out
[1741608796.604157] [ohm:3260560:0]        ib_iface.c:1059 UCX  ERROR ibv_create_cq(cqe=256) failed: Connection timed out
[1741608796.626954] [ohm:3260587:0]        ib_iface.c:1059 UCX  ERROR ibv_create_cq(cqe=256) failed: Connection timed out
[1741608796.631132] [ohm:3260562:0]        ib_iface.c:1059 UCX  ERROR ibv_create_cq(cqe=256) failed: Connection timed out
[1741608796.642341] [ohm:3260664:0]        ib_iface.c:1059 UCX  ERROR ibv_create_cq(cqe=256) failed: Connection timed out
[1741608796.645332] [ohm:3260585:0]        ib_iface.c:1059 UCX  ERROR ibv_create_cq(cqe=256) failed: Connection timed out
[1741608796.646710] [ohm:3260617:0]        ib_iface.c:1059 UCX  ERROR ibv_create_cq(cqe=256) failed: Connection timed out
[1741608796.666992] [ohm:3260673:0]        ib_iface.c:1059 UCX  ERROR ibv_create_cq(cqe=256) failed: Connection timed out
[1741608796.678702] [ohm:3260557:0]        ib_iface.c:1059 UCX  ERROR ibv_create_cq(cqe=256) failed: Connection timed out
[1741608796.687737] [ohm:3260694:0]        ib_iface.c:1059 UCX  ERROR ibv_create_cq(cqe=256) failed: Connection timed out
[1741608796.687980] [ohm:3260552:0]        ib_iface.c:1059 UCX  ERROR ibv_create_cq(cqe=256) failed: Connection timed out
[1741608796.695989] [ohm:3260647:0]        ib_iface.c:1059 UCX  ERROR ibv_create_cq(cqe=256) failed: Connection timed out
[1741608796.706277] [ohm:3260621:0]        ib_iface.c:1059 UCX  ERROR ibv_create_cq(cqe=256) failed: Connection timed out
[1741608796.721345] [ohm:3260657:0]        ib_iface.c:1059 UCX  ERROR ibv_create_cq(cqe=256) failed: Connection timed out
[1741608796.726819] [ohm:3260669:0]        ib_iface.c:1059 UCX  ERROR ibv_create_cq(cqe=256) failed: Connection timed out
[1741608796.730211] [ohm:3260593:0]        ib_iface.c:1059 UCX  ERROR ibv_create_cq(cqe=256) failed: Connection timed out
[1741608796.733671] [ohm:3260635:0]        ib_iface.c:1059 UCX  ERROR ibv_create_cq(cqe=256) failed: Connection timed out
[1741608796.745593] [ohm:3260620:0]        ib_iface.c:1059 UCX  ERROR ibv_create_cq(cqe=256) failed: Connection timed out
[1741608796.748085] [ohm:3260592:0]        ib_iface.c:1059 UCX  ERROR ibv_create_cq(cqe=256) failed: Connection timed out
[1741608796.766216] [ohm:3260588:0]        ib_iface.c:1059 UCX  ERROR ibv_create_cq(cqe=256) failed: Connection timed out
[1741608796.781993] [ohm:3260628:0]        ib_iface.c:1059 UCX  ERROR ibv_create_cq(cqe=256) failed: Connection timed out
[1741608796.788932] [ohm:3260618:0]        ib_iface.c:1059 UCX  ERROR ibv_create_cq(cqe=256) failed: Connection timed out
[1741608796.799792] [ohm:3260622:0]        ib_iface.c:1059 UCX  ERROR ibv_create_cq(cqe=256) failed: Connection timed out
[1741608796.801046] [ohm:3260567:0]        ib_iface.c:1059 UCX  ERROR ibv_create_cq(cqe=256) failed: Connection timed out
[1741608796.807705] [ohm:3260626:0]        ib_iface.c:1059 UCX  ERROR ibv_create_cq(cqe=256) failed: Connection timed out
[1741608796.810059] [ohm:3260689:0]        ib_iface.c:1059 UCX  ERROR ibv_create_cq(cqe=256) failed: Connection timed out
[1741608796.815397] [ohm:3260650:0]        ib_iface.c:1059 UCX  ERROR ibv_create_cq(cqe=256) failed: Connection timed out
[1741608796.820702] [ohm:3260633:0]        ib_iface.c:1059 UCX  ERROR ibv_create_cq(cqe=256) failed: Connection timed out
[1741608796.825253] [ohm:3260638:0]        ib_iface.c:1059 UCX  ERROR ibv_create_cq(cqe=256) failed: Connection timed out
[1741608796.826697] [ohm:3260564:0]        ib_iface.c:1059 UCX  ERROR ibv_create_cq(cqe=256) failed: Connection timed out
[1741608796.829106] [ohm:3260624:0]        ib_iface.c:1059 UCX  ERROR ibv_create_cq(cqe=256) failed: Connection timed out
[1741608796.831049] [ohm:3260696:0]        ib_iface.c:1059 UCX  ERROR ibv_create_cq(cqe=256) failed: Connection timed out
[1741608796.834176] [ohm:3260612:0]        ib_iface.c:1059 UCX  ERROR ibv_create_cq(cqe=256) failed: Connection timed out
[1741608796.843912] [ohm:3260606:0]        ib_iface.c:1059 UCX  ERROR ibv_create_cq(cqe=256) failed: Connection timed out
[1741608796.844788] [ohm:3260702:0]        ib_iface.c:1059 UCX  ERROR ibv_create_cq(cqe=256) failed: Connection timed out
[1741608796.844914] [ohm:3260644:0]        ib_iface.c:1059 UCX  ERROR ibv_create_cq(cqe=256) failed: Connection timed out
[1741608796.853005] [ohm:3260566:0]        ib_iface.c:1059 UCX  ERROR ibv_create_cq(cqe=256) failed: Connection timed out
[1741608796.857744] [ohm:3260607:0]        ib_iface.c:1059 UCX  ERROR ibv_create_cq(cqe=256) failed: Connection timed out
[1741608796.858938] [ohm:3260649:0]        ib_iface.c:1059 UCX  ERROR ibv_create_cq(cqe=256) failed: Connection timed out
[1741608796.860062] [ohm:3260615:0]        ib_iface.c:1059 UCX  ERROR ibv_create_cq(cqe=256) failed: Connection timed out
[1741608796.862311] [ohm:3260627:0]        ib_iface.c:1059 UCX  ERROR ibv_create_cq(cqe=256) failed: Connection timed out
[1741608796.864500] [ohm:3260559:0]        ib_iface.c:1059 UCX  ERROR ibv_create_cq(cqe=256) failed: Connection timed out
[1741608796.874312] [ohm:3260625:0]        ib_iface.c:1059 UCX  ERROR ibv_create_cq(cqe=256) failed: Connection timed out
[1741608796.880247] [ohm:3260600:0]        ib_iface.c:1059 UCX  ERROR ibv_create_cq(cqe=256) failed: Connection timed out
[1741608796.882448] [ohm:3260654:0]        ib_iface.c:1059 UCX  ERROR ibv_create_cq(cqe=256) failed: Connection timed out
[1741608796.885448] [ohm:3260679:0]        ib_iface.c:1059 UCX  ERROR ibv_create_cq(cqe=256) failed: Connection timed out
[1741608796.885930] [ohm:3260684:0]        ib_iface.c:1059 UCX  ERROR ibv_create_cq(cqe=256) failed: Connection timed out
[1741608796.886581] [ohm:3260619:0]        ib_iface.c:1059 UCX  ERROR ibv_create_cq(cqe=256) failed: Connection timed out
[1741608796.887004] [ohm:3260623:0]        ib_iface.c:1059 UCX  ERROR ibv_create_cq(cqe=256) failed: Connection timed out
[1741608796.887072] [ohm:3260601:0]        ib_iface.c:1059 UCX  ERROR ibv_create_cq(cqe=256) failed: Connection timed out
[1741608796.887502] [ohm:3260611:0]        ib_iface.c:1059 UCX  ERROR ibv_create_cq(cqe=256) failed: Connection timed out
[1741608796.888525] [ohm:3260687:0]        ib_iface.c:1059 UCX  ERROR ibv_create_cq(cqe=256) failed: Connection timed out
[1741608796.888527] [ohm:3260662:0]        ib_iface.c:1059 UCX  ERROR ibv_create_cq(cqe=256) failed: Connection timed out
[1741608796.889562] [ohm:3260589:0]        ib_iface.c:1059 UCX  ERROR ibv_create_cq(cqe=256) failed: Connection timed out
[1741608796.889885] [ohm:3260672:0]        ib_iface.c:1059 UCX  ERROR ibv_create_cq(cqe=256) failed: Connection timed out


           ************************************************************
           *        Program running with 64 parallel MPI-processes    *
           *              working on a common directory               *
           ************************************************************
-------------------------------------------------------------------------------
                                 ORCA GUESS
                   Start orbitals & Density for SCF / CASSCF
-------------------------------------------------------------------------------

------------
SCF SETTINGS
------------
Hamiltonian:
 Density Functional     Method          .... DFT(GTOs)
  Functional kind                       .... Exchange-Correlation
  Functional name                       .... wB97M-V exchange-correlation functional
  Functional family                     .... Hybrid MGGA
  Functional refs                              
    [ 0] N. Mardirossian and M. Head-Gordon.,  J. Chem. Phys. 144, 214110 (2016), doi: 10.1063/1.4952647
  Fraction of HF Exchange (short range) .... 0.1500
  Fraction of HF Exchange (long range)  .... 1.0000
  Range separation parameter mu         .... 0.3000
  Functional external parameters        .... 17
    Parameter  0 _cx00      =  8.500000e-01 : u^00 coefficient for exchange
    Parameter  1 _cx01      =  1.007000e+00 : u^01 coefficient for exchange
    Parameter  2 _cx10      =  2.590000e-01 : u^10 coefficient for exchange
    Parameter  3 _css00     =  4.430000e-01 : u^00 coefficient for same-spin correlation
    Parameter  4 _css04     = -1.437000e+00 : u^04 coefficient for same-spin correlation
    Parameter  5 _css10     = -4.535000e+00 : u^10 coefficient for same-spin correlation
    Parameter  6 _css20     = -3.390000e+00 : u^20 coefficient for same-spin correlation
    Parameter  7 _css43     =  4.278000e+00 : u^43 coefficient for same-spin correlation
    Parameter  8 _cos00     =  1.000000e+00 : u^00 coefficient for opposite-spin correlation
    Parameter  9 _cos10     =  1.358000e+00 : u^10 coefficient for opposite-spin correlation
    Parameter 10 _cos20     =  2.924000e+00 : u^20 coefficient for opposite-spin correlation
    Parameter 11 _cos21     = -8.812000e+00 : u^21 coefficient for opposite-spin correlation
    Parameter 12 _cos60     = -1.390000e+00 : u^60 coefficient for opposite-spin correlation
    Parameter 13 _cos61     =  9.142000e+00 : u^61 coefficient for opposite-spin correlation
    Parameter 14 _alpha     =  1.000000e+00 : fraction of HF exchange
    Parameter 15 _beta      = -8.500000e-01 : fraction of short-range exchange
    Parameter 16 _omega     =  3.000000e-01 : range-separation constant
 Long-range corrected/Screened/Range-Separated Hybrid DFT is turned on
   Amount of maximum screened exact exchange              ....  0.850000
   Range separation parameter mu (erf(mu*r12)/r12)        ....  0.300000
 RI-approximation to the Coulomb term is turned on
   Number of AuxJ basis functions       .... 191
   RIJ-COSX (HFX calculated with COS-X)).... on


General Settings:
 Integral files         IntName         .... orca
 Hartree-Fock type      HFTyp           .... UHF
 Total Charge           Charge          ....    0
 Multiplicity           Mult            ....    3
 Number of Electrons    NEL             ....   24
 Basis Dimension        Dim             ....  182
 Nuclear Repulsion      ENuc            ....     67.1076064146 Eh

Convergence Acceleration:
 AO-DIIS                CNVDIIS         .... on
   Start iteration      DIISMaxIt       ....    12
   Startup error        DIISStart       ....  0.200000
   # of expansion vecs  DIISMaxEq       ....     5
   Bias factor          DIISBfac        ....   1.050
   Max. coefficient     DIISMaxC        ....  10.000
 MO-DIIS                CNVKDIIS        .... off
 Trust-Rad. Augm. Hess. CNVTRAH         .... auto
   Auto Start mean grad. ratio tolernc. ....  1.125000
   Auto Start start iteration           ....    50
   Auto Start num. interpolation iter.  ....    10
   Max. Number of Micro iterations      ....    24
   Max. Number of Macro iterations      .... Maxiter - #DIIS iter
   Number of Davidson start vectors     ....     2
   Converg. threshold    (grad. norm)   ....   1.000e-05
   Grad. Scal. Fac. for Micro threshold ....   0.100
   Minimum threshold for Micro iter.    ....   1.000e-02
   NR start threshold (gradient norm)   ....   1.000e-04
   Initial trust radius                 ....   0.400
   Minimum AH scaling param. (alpha)    ....   1.000
   Maximum AH scaling param. (alpha)    .... 1000.000
   Quad. conv. algorithm                .... NR
   White noise on init. David. guess    .... on
   Maximum white noise                  ....   0.010
   Pseudo random numbers                .... off
   Inactive MOs                         .... canonical
   Orbital update algorithm             .... Taylor
   Preconditioner                       .... Diag
   Full preconditioner red. dimension   ....   250
 SOSCF                  CNVSOSCF        .... on
   Start iteration      SOSCFMaxIt      ....   150
   Startup grad/error   SOSCFStart      ....  0.003300
   Hessian update       SOSCFHessUp     .... L-BFGS
 Level Shifting         CNVShift        .... on
   Level shift para.    LevelShift      ....    0.2500
   Turn off err/grad.   ShiftErr        ....    0.0010
 Zerner damping         CNVZerner       .... off
 Static damping         CNVDamp         .... on
   Fraction old density DampFac         ....    0.7000
   Max. Damping (<1)    DampMax         ....    0.9800
   Min. Damping (>=0)   DampMin         ....    0.0000
   Turn off err/grad.   DampErr         ....    0.1000

SCF Procedure:
 Maximum # iterations   MaxIter         ....   125
 SCF integral mode      SCFMode         .... Direct
   Integral package                     .... SHARK and LIBINT hybrid scheme
 Reset frequency        DirectResetFreq ....    20
 Integral Threshold     Thresh          ....  2.500e-11 Eh
 Primitive CutOff       TCut            ....  2.500e-12 Eh

Convergence Tolerance:
 Convergence Check Mode ConvCheckMode   .... Total+1el-Energy
 Convergence forced     ConvForced      .... 1
 Energy Change          TolE            ....  1.000e-08 Eh
 1-El. energy change                    ....  1.000e-05 Eh
 Orbital Gradient       TolG            ....  1.000e-05
 Orbital Rotation angle TolX            ....  1.000e-05
 DIIS Error             TolErr          ....  5.000e-07

------------------------------
INITIAL GUESS: MODEL POTENTIAL
------------------------------
Loading Hartree-Fock densities                     ... done
Calculating cut-offs                               ... done
Initializing the effective Hamiltonian             ... done
Setting up the integral package (SHARK)            ... done
Starting the Coulomb interaction                   ... done (   0.0 sec)
Making the grid                                    ... done (   0.0 sec)
Mapping shells                                     ... done
Starting the XC term evaluation                    ... done (   0.0 sec)
  promolecular density results
     # of electrons  =     23.997979140
     EX              =    -19.445191805
     EC              =     -0.762939380
     EX+EC           =    -20.208131185
Transforming the Hamiltonian                       ... done (   0.0 sec)
Diagonalizing the Hamiltonian                      ... done (   0.0 sec)
Back transforming the eigenvectors                 ... done (   0.0 sec)
Now organizing SCF variables                       ... done
                      ------------------
                      INITIAL GUESS DONE (   0.1 sec)
                      ------------------
             **** ENERGY FILE WAS UPDATED (orca.en.tmp) ****
Finished Guess after   1.9 sec
Maximum memory used throughout the entire GUESS-calculation: 9.5 MB
[1741608798.756776] [ohm:3260896:0]        ib_iface.c:1059 UCX  ERROR ibv_create_cq(cqe=256) failed: Connection timed out
[1741608798.756772] [ohm:3260904:0]        ib_iface.c:1059 UCX  ERROR ibv_create_cq(cqe=256) failed: Connection timed out
[1741608798.759777] [ohm:3260895:0]        ib_iface.c:1059 UCX  ERROR ibv_create_cq(cqe=256) failed: Connection timed out
[1741608798.768781] [ohm:3260897:0]        ib_iface.c:1059 UCX  ERROR ibv_create_cq(cqe=256) failed: Connection timed out
[1741608798.775421] [ohm:3260905:0]        ib_iface.c:1059 UCX  ERROR ibv_create_cq(cqe=256) failed: Connection timed out
[1741608798.779003] [ohm:3260957:0]        ib_iface.c:1059 UCX  ERROR ibv_create_cq(cqe=256) failed: Connection timed out
[1741608798.784070] [ohm:3260925:0]        ib_iface.c:1059 UCX  ERROR ibv_create_cq(cqe=256) failed: Connection timed out
[1741608798.794856] [ohm:3260900:0]        ib_iface.c:1059 UCX  ERROR ibv_create_cq(cqe=256) failed: Connection timed out
[1741608798.797566] [ohm:3260926:0]        ib_iface.c:1059 UCX  ERROR ibv_create_cq(cqe=256) failed: Connection timed out
[1741608798.804651] [ohm:3260898:0]        ib_iface.c:1059 UCX  ERROR ibv_create_cq(cqe=256) failed: Connection timed out
[1741608798.807079] [ohm:3260902:0]        ib_iface.c:1059 UCX  ERROR ibv_create_cq(cqe=256) failed: Connection timed out
[1741608798.815849] [ohm:3260903:0]        ib_iface.c:1059 UCX  ERROR ibv_create_cq(cqe=256) failed: Connection timed out
[1741608798.817003] [ohm:3260928:0]        ib_iface.c:1059 UCX  ERROR ibv_create_cq(cqe=256) failed: Connection timed out
[1741608798.818191] [ohm:3260924:0]        ib_iface.c:1059 UCX  ERROR ibv_create_cq(cqe=256) failed: Connection timed out
[1741608798.827221] [ohm:3260986:0]        ib_iface.c:1059 UCX  ERROR ibv_create_cq(cqe=256) failed: Connection timed out
[1741608798.827455] [ohm:3260961:0]        ib_iface.c:1059 UCX  ERROR ibv_create_cq(cqe=256) failed: Connection timed out
[1741608798.830091] [ohm:3260907:0]        ib_iface.c:1059 UCX  ERROR ibv_create_cq(cqe=256) failed: Connection timed out
[1741608798.832216] [ohm:3260959:0]        ib_iface.c:1059 UCX  ERROR ibv_create_cq(cqe=256) failed: Connection timed out
[1741608798.835794] [ohm:3260953:0]        ib_iface.c:1059 UCX  ERROR ibv_create_cq(cqe=256) failed: Connection timed out
[1741608798.862851] [ohm:3260940:0]        ib_iface.c:1059 UCX  ERROR ibv_create_cq(cqe=256) failed: Connection timed out
[1741608798.863839] [ohm:3260906:0]        ib_iface.c:1059 UCX  ERROR ibv_create_cq(cqe=256) failed: Connection timed out
[1741608798.866054] [ohm:3260923:0]        ib_iface.c:1059 UCX  ERROR ibv_create_cq(cqe=256) failed: Connection timed out
[1741608798.883655] [ohm:3260950:0]        ib_iface.c:1059 UCX  ERROR ibv_create_cq(cqe=256) failed: Connection timed out
[1741608798.887960] [ohm:3260931:0]        ib_iface.c:1059 UCX  ERROR ibv_create_cq(cqe=256) failed: Connection timed out
[1741608798.889162] [ohm:3260967:0]        ib_iface.c:1059 UCX  ERROR ibv_create_cq(cqe=256) failed: Connection timed out
[1741608798.902750] [ohm:3260956:0]        ib_iface.c:1059 UCX  ERROR ibv_create_cq(cqe=256) failed: Connection timed out
[1741608798.908570] [ohm:3260969:0]        ib_iface.c:1059 UCX  ERROR ibv_create_cq(cqe=256) failed: Connection timed out
[1741608798.913160] [ohm:3260901:0]        ib_iface.c:1059 UCX  ERROR ibv_create_cq(cqe=256) failed: Connection timed out
[1741608798.914320] [ohm:3260981:0]        ib_iface.c:1059 UCX  ERROR ibv_create_cq(cqe=256) failed: Connection timed out
[1741608798.916829] [ohm:3260899:0]        ib_iface.c:1059 UCX  ERROR ibv_create_cq(cqe=256) failed: Connection timed out
[1741608798.919662] [ohm:3260960:0]        ib_iface.c:1059 UCX  ERROR ibv_create_cq(cqe=256) failed: Connection timed out
[1741608798.926038] [ohm:3260990:0]        ib_iface.c:1059 UCX  ERROR ibv_create_cq(cqe=256) failed: Connection timed out
[1741608798.928745] [ohm:3260973:0]        ib_iface.c:1059 UCX  ERROR ibv_create_cq(cqe=256) failed: Connection timed out
[1741608798.933259] [ohm:3260958:0]        ib_iface.c:1059 UCX  ERROR ibv_create_cq(cqe=256) failed: Connection timed out
[1741608798.937246] [ohm:3261026:0]        ib_iface.c:1059 UCX  ERROR ibv_create_cq(cqe=256) failed: Connection timed out
[1741608798.937902] [ohm:3260943:0]        ib_iface.c:1059 UCX  ERROR ibv_create_cq(cqe=256) failed: Connection timed out
[1741608798.938825] [ohm:3260996:0]        ib_iface.c:1059 UCX  ERROR ibv_create_cq(cqe=256) failed: Connection timed out
[1741608798.958910] [ohm:3261036:0]        ib_iface.c:1059 UCX  ERROR ibv_create_cq(cqe=256) failed: Connection timed out
[1741608798.959987] [ohm:3260955:0]        ib_iface.c:1059 UCX  ERROR ibv_create_cq(cqe=256) failed: Connection timed out
[1741608798.960227] [ohm:3260949:0]        ib_iface.c:1059 UCX  ERROR ibv_create_cq(cqe=256) failed: Connection timed out
[1741608798.971174] [ohm:3261042:0]        ib_iface.c:1059 UCX  ERROR ibv_create_cq(cqe=256) failed: Connection timed out
[1741608798.971970] [ohm:3261037:0]        ib_iface.c:1059 UCX  ERROR ibv_create_cq(cqe=256) failed: Connection timed out
[1741608798.972169] [ohm:3260954:0]        ib_iface.c:1059 UCX  ERROR ibv_create_cq(cqe=256) failed: Connection timed out
[1741608798.974040] [ohm:3261000:0]        ib_iface.c:1059 UCX  ERROR ibv_create_cq(cqe=256) failed: Connection timed out
[1741608798.975923] [ohm:3260933:0]        ib_iface.c:1059 UCX  ERROR ibv_create_cq(cqe=256) failed: Connection timed out
[1741608798.975916] [ohm:3260932:0]        ib_iface.c:1059 UCX  ERROR ibv_create_cq(cqe=256) failed: Connection timed out
[1741608798.978224] [ohm:3260963:0]        ib_iface.c:1059 UCX  ERROR ibv_create_cq(cqe=256) failed: Connection timed out
[1741608798.992112] [ohm:3261003:0]        ib_iface.c:1059 UCX  ERROR ibv_create_cq(cqe=256) failed: Connection timed out
[1741608798.992572] [ohm:3260930:0]        ib_iface.c:1059 UCX  ERROR ibv_create_cq(cqe=256) failed: Connection timed out
[1741608798.994814] [ohm:3261029:0]        ib_iface.c:1059 UCX  ERROR ibv_create_cq(cqe=256) failed: Connection timed out
[1741608798.997574] [ohm:3260908:0]        ib_iface.c:1059 UCX  ERROR ibv_create_cq(cqe=256) failed: Connection timed out
[1741608798.999305] [ohm:3261010:0]        ib_iface.c:1059 UCX  ERROR ibv_create_cq(cqe=256) failed: Connection timed out
[1741608798.999346] [ohm:3260936:0]        ib_iface.c:1059 UCX  ERROR ibv_create_cq(cqe=256) failed: Connection timed out
[1741608799.003602] [ohm:3261033:0]        ib_iface.c:1059 UCX  ERROR ibv_create_cq(cqe=256) failed: Connection timed out
[1741608799.011448] [ohm:3261039:0]        ib_iface.c:1059 UCX  ERROR ibv_create_cq(cqe=256) failed: Connection timed out
[1741608799.013027] [ohm:3260927:0]        ib_iface.c:1059 UCX  ERROR ibv_create_cq(cqe=256) failed: Connection timed out
[1741608799.023358] [ohm:3260929:0]        ib_iface.c:1059 UCX  ERROR ibv_create_cq(cqe=256) failed: Connection timed out
[1741608799.024100] [ohm:3260977:0]        ib_iface.c:1059 UCX  ERROR ibv_create_cq(cqe=256) failed: Connection timed out
[1741608799.024101] [ohm:3261012:0]        ib_iface.c:1059 UCX  ERROR ibv_create_cq(cqe=256) failed: Connection timed out
[1741608799.024109] [ohm:3261018:0]        ib_iface.c:1059 UCX  ERROR ibv_create_cq(cqe=256) failed: Connection timed out
[1741608799.025020] [ohm:3261017:0]        ib_iface.c:1059 UCX  ERROR ibv_create_cq(cqe=256) failed: Connection timed out
[1741608799.025180] [ohm:3260993:0]        ib_iface.c:1059 UCX  ERROR ibv_create_cq(cqe=256) failed: Connection timed out
[1741608799.025593] [ohm:3261046:0]        ib_iface.c:1059 UCX  ERROR ibv_create_cq(cqe=256) failed: Connection timed out
[1741608799.025779] [ohm:3261006:0]        ib_iface.c:1059 UCX  ERROR ibv_create_cq(cqe=256) failed: Connection timed out


           ************************************************************
           *        Program running with 64 parallel MPI-processes    *
           *              working on a common directory               *
           ************************************************************

-------------------------------------------------------------------------------------------
                                      ORCA LEAN-SCF
                              memory conserving SCF solver
-------------------------------------------------------------------------------------------

----------------------------------------D-I-I-S--------------------------------------------
Iteration    Energy (Eh)           Delta-E    RMSDP     MaxDP     DIISErr   Damp  Time(sec)
-------------------------------------------------------------------------------------------
               ***  Starting incremental Fock matrix formation  ***
    1    -153.6985507743406743     0.00e+00  7.78e-04  2.05e-02  8.45e-02  0.700   0.3
    2    -153.7277488361369251    -2.92e-02  6.71e-04  1.82e-02  4.55e-02  0.700   0.3
                               ***Turning on AO-DIIS***
    3    -153.7431263964905952    -1.54e-02  5.32e-04  1.93e-02  2.15e-02  0.700   0.3
    4    -153.7528032438326022    -9.68e-03  1.35e-03  5.43e-02  1.63e-02  0.000   0.3
    5    -153.7764243696599920    -2.36e-02  1.58e-04  5.82e-03  5.24e-03  0.000   0.3
                              *** Initializing SOSCF ***
---------------------------------------S-O-S-C-F--------------------------------------
Iteration    Energy (Eh)           Delta-E    RMSDP     MaxDP     MaxGrad    Time(sec)
--------------------------------------------------------------------------------------
    6    -153.7772308817365570    -8.07e-04  1.13e-04  2.58e-03  3.05e-03     0.3
               *** Restarting incremental Fock matrix formation ***
    7    -153.7776389687474534    -4.08e-04  6.06e-05  1.59e-03  6.29e-03     0.3
    8    -153.7777876169217848    -1.49e-04  7.43e-05  1.49e-03  1.70e-03     0.3
    9    -153.7778837419103866    -9.61e-05  1.69e-05  5.14e-04  3.06e-04     0.3
   10    -153.7778854244015747    -1.68e-06  7.91e-06  2.74e-04  1.08e-04     0.2
   11    -153.7778857690184964    -3.45e-07  2.47e-06  8.53e-05  5.35e-05     0.3
   12    -153.7778858309165457    -6.19e-08  1.99e-06  7.24e-05  4.85e-05     0.2
   13    -153.7778858679014888    -3.70e-08  2.62e-06  1.10e-04  4.57e-05     0.3
   14    -153.7778859093648407    -4.15e-08  3.12e-06  1.59e-04  3.92e-05     0.3
   15    -153.7778859539249083    -4.46e-08  4.53e-06  2.39e-04  3.94e-05     0.3
   16    -153.7778860076252272    -5.37e-08  2.95e-06  1.49e-04  3.86e-05     0.3
   17    -153.7778860353097912    -2.77e-08  9.15e-07  2.80e-05  1.93e-05     0.3
   18    -153.7778860413000075    -5.99e-09  3.96e-07  1.50e-05  5.05e-06     0.3
                 **** Energy Check signals convergence ****

               *****************************************************
               *                     SUCCESS                       *
               *           SCF CONVERGED AFTER  18 CYCLES          *
               *****************************************************

Recomputing exchange energy using gridx3       ... done (    0.185 sec)
Old exchange energy                            :     -6.188829514 Eh
New exchange energy                            :     -6.188838127 Eh
Exchange energy change after final integration :     -0.000008612 Eh
Total energy after final integration           :   -153.777894654 Eh
             **** ENERGY FILE WAS UPDATED (orca.en.tmp) ****

----------------
TOTAL SCF ENERGY
----------------

Total Energy       :       -153.77789465370748 Eh           -4184.50925 eV

Components:
Nuclear Repulsion  :         67.10760641460628 Eh            1826.09081 eV
Electronic Energy  :       -220.88549245590627 Eh           -6010.59982 eV
One Electron Energy:       -340.83847401031744 Eh           -9274.68639 eV
Two Electron Energy:        119.95298155441117 Eh            3264.08657 eV

Virial components:
Potential Energy   :       -306.94737411838764 Eh           -8352.46268 eV
Kinetic Energy     :        153.16947946468017 Eh            4167.95343 eV
Virial Ratio       :          2.00397216985495

DFT components:
N(Alpha)           :       12.999984994298 electrons
N(Beta)            :       10.999976766761 electrons
N(Total)           :       23.999961761059 electrons
E(XC)              :      -14.669378603528 Eh       

---------------
SCF CONVERGENCE
---------------

  Last Energy change         ...    5.9902e-09  Tolerance :   1.0000e-08
  Last MAX-Density change    ...    1.4950e-05  Tolerance :   1.0000e-07
  Last RMS-Density change    ...    3.9576e-07  Tolerance :   5.0000e-09
  Last DIIS Error            ...    3.0492e-03  Tolerance :   5.0000e-07
  Last Orbital Gradient      ...    5.0473e-06  Tolerance :   1.0000e-05
  Last Orbital Rotation      ...    6.7169e-05  Tolerance :   1.0000e-05


----------------------
UHF SPIN CONTAMINATION
----------------------

Warning: in a DFT calculation there is little theoretical justification to 
         calculate <S**2> as in Hartree-Fock theory. We will do it anyways
         but you should keep in mind that the values have only limited relevance

Expectation value of <S**2>     :     2.008184
Ideal value S*(S+1) for S=1.0   :     2.000000
Deviation                       :     0.008184

----------------
ORBITAL ENERGIES
----------------
                 SPIN UP ORBITALS
  NO   OCC          E(Eh)            E(eV) 
   0   1.0000     -19.378344      -527.3115 
   1   1.0000     -10.419076      -283.5175 
   2   1.0000     -10.378147      -282.4037 
   3   1.0000      -1.165020       -31.7018 
   4   1.0000      -0.867679       -23.6108 
   5   1.0000      -0.735621       -20.0173 
   6   1.0000      -0.614450       -16.7200 
   7   1.0000      -0.575353       -15.6561 
   8   1.0000      -0.547272       -14.8920 
   9   1.0000      -0.532576       -14.4921 
  10   1.0000      -0.414093       -11.2680 
  11   1.0000      -0.406531       -11.0623 
  12   1.0000      -0.338066        -9.1992 
  13   0.0000       0.040356         1.0982 
  14   0.0000       0.059604         1.6219 
  15   0.0000       0.076280         2.0757 
  16   0.0000       0.089255         2.4288 
  17   0.0000       0.114398         3.1129 
  18   0.0000       0.126566         3.4440 
  19   0.0000       0.128908         3.5078 
  20   0.0000       0.142110         3.8670 
  21   0.0000       0.169313         4.6072 
  22   0.0000       0.191088         5.1998 
  23   0.0000       0.201251         5.4763 

                 SPIN DOWN ORBITALS
  NO   OCC          E(Eh)            E(eV) 
   0   1.0000     -19.354405      -526.6601 
   1   1.0000     -10.420335      -283.5517 
   2   1.0000     -10.365076      -282.0481 
   3   1.0000      -1.112948       -30.2849 
   4   1.0000      -0.833216       -22.6730 
   5   1.0000      -0.708738       -19.2857 
   6   1.0000      -0.581399       -15.8207 
   7   1.0000      -0.553804       -15.0698 
   8   1.0000      -0.518642       -14.1130 
   9   1.0000      -0.491137       -13.3645 
  10   1.0000      -0.376008       -10.2317 
  11   0.0000      -0.043220        -1.1761 
  12   0.0000      -0.010573        -0.2877 
  13   0.0000       0.039538         1.0759 
  14   0.0000       0.060072         1.6347 
  15   0.0000       0.076255         2.0750 
  16   0.0000       0.091665         2.4943 
  17   0.0000       0.114488         3.1154 
  18   0.0000       0.127404         3.4668 
  19   0.0000       0.132617         3.6087 
  20   0.0000       0.148948         4.0531 
  21   0.0000       0.178108         4.8466 
*Only the first 10 virtual orbitals were printed.

                    ********************************
                    * MULLIKEN POPULATION ANALYSIS *
                    ********************************

--------------------------------------------
MULLIKEN ATOMIC CHARGES AND SPIN POPULATIONS
--------------------------------------------
   0 O :   -0.345378    0.906744
   1 C :    0.006912    0.018263
   2 C :   -0.554237    0.846300
   3 H :    0.209142    0.088079
   4 H :    0.205648    0.085448
   5 H :    0.234606    0.032982
   6 H :    0.243305    0.022184
Sum of atomic charges         :    0.0000000
Sum of atomic spin populations:    2.0000000

-----------------------------------------------------
MULLIKEN REDUCED ORBITAL CHARGES AND SPIN POPULATIONS
-----------------------------------------------------
CHARGE
  0 O s       :     3.992511  s :     3.992511
      pz      :     1.550553  p :     4.330462
      px      :     1.271943
      py      :     1.507967
      dz2     :     0.003541  d :     0.021112
      dxz     :     0.002190
      dyz     :     0.003095
      dx2y2   :     0.005640
      dxy     :     0.006647
      f0      :     0.000119  f :     0.001292
      f+1     :     0.000187
      f-1     :     0.000102
      f+2     :     0.000067
      f-2     :     0.000264
      f+3     :     0.000263
      f-3     :     0.000291

  1 C s       :     3.218476  s :     3.218476
      pz      :     0.980517  p :     2.598640
      px      :     0.818887
      py      :     0.799236
      dz2     :     0.046510  d :     0.165441
      dxz     :     0.008657
      dyz     :     0.023694
      dx2y2   :     0.026832
      dxy     :     0.059749
      f0      :     0.001015  f :     0.010530
      f+1     :     0.001153
      f-1     :     0.001342
      f+2     :     0.001262
      f-2     :     0.001519
      f+3     :     0.002668
      f-3     :     0.001570

  2 C s       :     3.599959  s :     3.599959
      pz      :     0.989254  p :     2.943518
      px      :     0.985168
      py      :     0.969096
      dz2     :    -0.005308  d :     0.007364
      dxz     :     0.008251
      dyz     :     0.000522
      dx2y2   :    -0.000791
      dxy     :     0.004689
      f0      :     0.000285  f :     0.003396
      f+1     :     0.000437
      f-1     :     0.000625
      f+2     :     0.000599
      f-2     :     0.000539
      f+3     :     0.000518
      f-3     :     0.000393

  3 H s       :     0.754535  s :     0.754535
      pz      :     0.000115  p :     0.033602
      px      :     0.021071
      py      :     0.012416
      dz2     :     0.000224  d :     0.002720
      dxz     :     0.000436
      dyz     :     0.000393
      dx2y2   :     0.001064
      dxy     :     0.000603

  4 H s       :     0.758029  s :     0.758029
      pz      :     0.020778  p :     0.033597
      px      :     0.011166
      py      :     0.001653
      dz2     :     0.000732  d :     0.002725
      dxz     :     0.000938
      dyz     :     0.000929
      dx2y2   :     0.000028
      dxy     :     0.000099

  5 H s       :     0.718729  s :     0.718729
      pz      :     0.017021  p :     0.044280
      px      :     0.015510
      py      :     0.011749
      dz2     :     0.000362  d :     0.002384
      dxz     :     0.000294
      dyz     :     0.000473
      dx2y2   :     0.000809
      dxy     :     0.000445

  6 H s       :     0.713601  s :     0.713601
      pz      :     0.016164  p :     0.040918
      px      :     0.014796
      py      :     0.009959
      dz2     :     0.000691  d :     0.002176
      dxz     :     0.000485
      dyz     :     0.000506
      dx2y2   :     0.000242
      dxy     :     0.000252


SPIN
  0 O s       :     0.009527  s :     0.009527
      pz      :     0.338413  p :     0.902415
      px      :     0.317765
      py      :     0.246238
      dz2     :    -0.000945  d :    -0.005026
      dxz     :     0.000035
      dyz     :    -0.001425
      dx2y2   :    -0.002666
      dxy     :    -0.000026
      f0      :    -0.000001  f :    -0.000173
      f+1     :    -0.000020
      f-1     :     0.000006
      f+2     :    -0.000004
      f-2     :    -0.000028
      f+3     :    -0.000054
      f-3     :    -0.000071

  1 C s       :     0.014078  s :     0.014078
      pz      :    -0.013662  p :    -0.064530
      px      :    -0.031224
      py      :    -0.019644
      dz2     :     0.022975  d :     0.065873
      dxz     :     0.000471
      dyz     :     0.012946
      dx2y2   :     0.010010
      dxy     :     0.019472
      f0      :     0.000214  f :     0.002842
      f+1     :     0.000248
      f-1     :     0.000449
      f+2     :     0.000140
      f-2     :     0.000627
      f+3     :     0.000906
      f-3     :     0.000258

  2 C s       :    -0.039938  s :    -0.039938
      pz      :     0.331810  p :     0.901049
      px      :     0.490097
      py      :     0.079141
      dz2     :    -0.005424  d :    -0.013746
      dxz     :    -0.003603
      dyz     :     0.000019
      dx2y2   :    -0.000517
      dxy     :    -0.004219
      f0      :    -0.000082  f :    -0.001065
      f+1     :    -0.000324
      f-1     :    -0.000017
      f+2     :    -0.000200
      f-2     :    -0.000207
      f+3     :    -0.000134
      f-3     :    -0.000100

  3 H s       :     0.081766  s :     0.081766
      pz      :    -0.000811  p :     0.006219
      px      :     0.005290
      py      :     0.001739
      dz2     :     0.000024  d :     0.000095
      dxz     :    -0.000011
      dyz     :     0.000014
      dx2y2   :     0.000008
      dxy     :     0.000059

  4 H s       :     0.078934  s :     0.078934
      pz      :     0.005353  p :     0.006436
      px      :     0.000828
      py      :     0.000256
      dz2     :     0.000066  d :     0.000078
      dxz     :    -0.000019
      dyz     :     0.000017
      dx2y2   :     0.000005
      dxy     :     0.000008

  5 H s       :     0.007189  s :     0.007189
      pz      :     0.009226  p :     0.024718
      px      :     0.013416
      py      :     0.002076
      dz2     :     0.000161  d :     0.001075
      dxz     :     0.000047
      dyz     :     0.000298
      dx2y2   :     0.000459
      dxy     :     0.000111

  6 H s       :    -0.003551  s :    -0.003551
      pz      :     0.011272  p :     0.024759
      px      :     0.011429
      py      :     0.002058
      dz2     :     0.000538  d :     0.000977
      dxz     :     0.000053
      dyz     :     0.000127
      dx2y2   :     0.000157
      dxy     :     0.000101



                     *******************************
                     * LOEWDIN POPULATION ANALYSIS *
                     *******************************

-------------------------------------------
LOEWDIN ATOMIC CHARGES AND SPIN POPULATIONS
-------------------------------------------
   0 O :    0.024396    0.852272
   1 C :   -0.269279    0.200651
   2 C :    0.266337    0.679568
   3 H :    0.048022    0.056354
   4 H :    0.041002    0.052922
   5 H :   -0.069125    0.081544
   6 H :   -0.041353    0.076689

----------------------------------------------------
LOEWDIN REDUCED ORBITAL CHARGES AND SPIN POPULATIONS
----------------------------------------------------
CHARGE
  0 O s       :     3.476131  s :     3.476131
      pz      :     1.440728  p :     4.223302
      px      :     1.324200
      py      :     1.458375
      dz2     :     0.039091  d :     0.271912
      dxz     :     0.052788
      dyz     :     0.035543
      dx2y2   :     0.081473
      dxy     :     0.063017
      f0      :     0.000345  f :     0.004258
      f+1     :     0.000642
      f-1     :     0.000314
      f+2     :     0.000229
      f-2     :     0.000817
      f+3     :     0.001105
      f-3     :     0.000806

  1 C s       :     2.672397  s :     2.672397
      pz      :     0.885864  p :     2.598489
      px      :     0.823973
      py      :     0.888653
      dz2     :     0.198633  d :     0.915974
      dxz     :     0.112473
      dyz     :     0.138613
      dx2y2   :     0.184712
      dxy     :     0.281544
      f0      :     0.008906  f :     0.082419
      f+1     :     0.010408
      f-1     :     0.008759
      f+2     :     0.009617
      f-2     :     0.012394
      f+3     :     0.017886
      f-3     :     0.014449

  2 C s       :     2.748940  s :     2.748940
      pz      :     0.865640  p :     2.601598
      px      :     0.816884
      py      :     0.919074
      dz2     :     0.070723  d :     0.362781
      dxz     :     0.044882
      dyz     :     0.092790
      dx2y2   :     0.065421
      dxy     :     0.088965
      f0      :     0.001719  f :     0.020345
      f+1     :     0.002128
      f-1     :     0.003701
      f+2     :     0.003481
      f-2     :     0.003641
      f+3     :     0.003351
      f-3     :     0.002325

  3 H s       :     0.666396  s :     0.666396
      pz      :     0.067174  p :     0.258082
      px      :     0.101814
      py      :     0.089093
      dz2     :     0.002934  d :     0.027500
      dxz     :     0.004348
      dyz     :     0.004232
      dx2y2   :     0.007763
      dxy     :     0.008223

  4 H s       :     0.669784  s :     0.669784
      pz      :     0.129339  p :     0.261041
      px      :     0.065663
      py      :     0.066039
      dz2     :     0.011186  d :     0.028173
      dxz     :     0.008488
      dyz     :     0.007890
      dx2y2   :     0.000156
      dxy     :     0.000453

  5 H s       :     0.732985  s :     0.732985
      pz      :     0.088689  p :     0.303724
      px      :     0.105878
      py      :     0.109158
      dz2     :     0.004619  d :     0.032416
      dxz     :     0.004398
      dyz     :     0.006398
      dx2y2   :     0.008808
      dxy     :     0.008193

  6 H s       :     0.732916  s :     0.732916
      pz      :     0.115819  p :     0.279761
      px      :     0.096473
      py      :     0.067470
      dz2     :     0.009015  d :     0.028676
      dxz     :     0.008453
      dyz     :     0.005397
      dx2y2   :     0.002960
      dxy     :     0.002850


SPIN
  0 O s       :     0.016109  s :     0.016109
      pz      :     0.309263  p :     0.816723
      px      :     0.281679
      py      :     0.225781
      dz2     :     0.003292  d :     0.019380
      dxz     :     0.001355
      dyz     :     0.005270
      dx2y2   :     0.008915
      dxy     :     0.000548
      f0      :    -0.000005  f :     0.000059
      f+1     :     0.000069
      f-1     :    -0.000021
      f+2     :    -0.000008
      f-2     :     0.000040
      f+3     :     0.000063
      f-3     :    -0.000080

  1 C s       :    -0.005092  s :    -0.005092
      pz      :    -0.001134  p :    -0.006590
      px      :    -0.000322
      py      :    -0.005134
      dz2     :     0.066428  d :     0.189276
      dxz     :     0.004187
      dyz     :     0.032552
      dx2y2   :     0.032342
      dxy     :     0.053768
      f0      :     0.002372  f :     0.023057
      f+1     :     0.001724
      f-1     :     0.002891
      f+2     :     0.001508
      f-2     :     0.004759
      f+3     :     0.006858
      f-3     :     0.002945

  2 C s       :     0.011908  s :     0.011908
      pz      :     0.237119  p :     0.672965
      px      :     0.370532
      py      :     0.065313
      dz2     :     0.003110  d :    -0.004567
      dxz     :    -0.004142
      dyz     :    -0.001059
      dx2y2   :    -0.001541
      dxy     :    -0.000935
      f0      :    -0.000028  f :    -0.000737
      f+1     :    -0.000208
      f-1     :     0.000011
      f+2     :     0.000000
      f-2     :    -0.000186
      f+3     :    -0.000202
      f-3     :    -0.000125

  3 H s       :     0.049532  s :     0.049532
      pz      :    -0.001551  p :     0.007055
      px      :     0.006664
      py      :     0.001942
      dz2     :    -0.000020  d :    -0.000232
      dxz     :    -0.000118
      dyz     :     0.000051
      dx2y2   :    -0.000169
      dxy     :     0.000024

  4 H s       :     0.045435  s :     0.045435
      pz      :     0.001994  p :     0.007725
      px      :     0.000745
      py      :     0.004986
      dz2     :    -0.000031  d :    -0.000238
      dxz     :    -0.000282
      dyz     :     0.000050
      dx2y2   :     0.000018
      dxy     :     0.000007

  5 H s       :    -0.011802  s :    -0.011802
      pz      :     0.026772  p :     0.082294
      px      :     0.046929
      py      :     0.008593
      dz2     :     0.001608  d :     0.011052
      dxz     :     0.000224
      dyz     :     0.003153
      dx2y2   :     0.004457
      dxy     :     0.001610

  6 H s       :    -0.013627  s :    -0.013627
      pz      :     0.030457  p :     0.080316
      px      :     0.042924
      py      :     0.006935
      dz2     :     0.006123  d :     0.010000
      dxz     :     0.001050
      dyz     :     0.000546
      dx2y2   :     0.001619
      dxy     :     0.000662



                      *****************************
                      * MAYER POPULATION ANALYSIS *
                      *****************************

  NA   - Mulliken gross atomic population
  ZA   - Total nuclear charge
  QA   - Mulliken gross atomic charge
  VA   - Mayer's total valence
  BVA  - Mayer's bonded valence
  FA   - Mayer's free valence

  ATOM       NA         ZA         QA         VA         BVA        FA
  0 O      8.3454     8.0000    -0.3454     1.8268     1.1122     0.7146
  1 C      5.9931     6.0000     0.0069     3.5446     3.5294     0.0152
  2 C      6.5542     6.0000    -0.5542     3.5122     2.7376     0.7745
  3 H      0.7909     1.0000     0.2091     1.0001     0.9939     0.0062
  4 H      0.7944     1.0000     0.2056     1.0062     1.0006     0.0056
  5 H      0.7654     1.0000     0.2346     0.9338     0.9335     0.0003
  6 H      0.7567     1.0000     0.2433     0.9399     0.9395     0.0003

  Mayer bond orders larger than 0.100000
B(  0-O ,  1-C ) :   0.9058 B(  1-C ,  2-C ) :   0.7732 B(  1-C ,  3-H ) :   0.9240 
B(  1-C ,  4-H ) :   0.9585 B(  2-C ,  5-H ) :   0.9647 B(  2-C ,  6-H ) :   0.9456 


-------
TIMINGS
-------

Total SCF time: 0 days 0 hours 0 min 6 sec 

Total time                  ....       6.987 sec
Sum of individual times     ....       6.954 sec  ( 99.5%)

SCF preparation             ....       1.632 sec  ( 23.4%)
Fock matrix formation       ....       4.193 sec  ( 60.0%)
  Startup                   ....       0.075 sec  (  1.8% of F)
  Split-RI-J                ....       0.487 sec  ( 11.6% of F)
  Chain of spheres X        ....       2.271 sec  ( 54.2% of F)
  XC integration            ....       1.089 sec  ( 26.0% of F)
    XC Preparation          ....       0.000 sec  (  0.0% of XC)
    Basis function eval.    ....       0.080 sec  (  7.4% of XC)
    Density eval.           ....       0.215 sec  ( 19.7% of XC)
    XC-Functional eval.     ....       0.014 sec  (  1.3% of XC)
    XC-Potential eval.      ....       0.295 sec  ( 27.1% of XC)
Diagonalization             ....       0.000 sec  (  0.0%)
Density matrix formation    ....       0.143 sec  (  2.0%)
Total Energy calculation    ....       0.133 sec  (  1.9%)
Population analysis         ....       0.035 sec  (  0.5%)
Orbital Transformation      ....       0.075 sec  (  1.1%)
Orbital Orthonormalization  ....       0.000 sec  (  0.0%)
DIIS solution               ....       0.385 sec  (  5.5%)
SOSCF solution              ....       0.352 sec  (  5.0%)
[...]
[1741608816.210861] [ohm:3262024:0]        ib_iface.c:1059 UCX  ERROR ibv_create_cq(cqe=256) failed: Connection timed out
[1741608816.216004] [ohm:3261991:0]        ib_iface.c:1059 UCX  ERROR ibv_create_cq(cqe=256) failed: Connection timed out
[1741608816.218780] [ohm:3261988:0]        ib_iface.c:1059 UCX  ERROR ibv_create_cq(cqe=256) failed: Connection timed out
[1741608816.220435] [ohm:3261968:0]        ib_iface.c:1059 UCX  ERROR ibv_create_cq(cqe=256) failed: Connection timed out
[1741608816.220782] [ohm:3261989:0]        ib_iface.c:1059 UCX  ERROR ibv_create_cq(cqe=256) failed: Connection timed out
[1741608816.221338] [ohm:3262035:0]        ib_iface.c:1059 UCX  ERROR ibv_create_cq(cqe=256) failed: Connection timed out
[1741608816.221657] [ohm:3262013:0]        ib_iface.c:1059 UCX  ERROR ibv_create_cq(cqe=256) failed: Connection timed out
[1741608816.221740] [ohm:3262016:0]        ib_iface.c:1059 UCX  ERROR ibv_create_cq(cqe=256) failed: Connection timed out
[1741608816.225796] [ohm:3261987:0]        ib_iface.c:1059 UCX  ERROR ibv_create_cq(cqe=256) failed: Connection timed out
[1741608816.226702] [ohm:3261990:0]        ib_iface.c:1059 UCX  ERROR ibv_create_cq(cqe=256) failed: Connection timed out


           ************************************************************
           *        Program running with 64 parallel MPI-processes    *
           *              working on a common directory               *
           ************************************************************

------------------------------------------------------------------------------
                              ORCA PROPERTY CALCULATIONS
------------------------------------------------------------------------------

GBWName                                 ... orca.gbw
Number of atoms                         ...      7
Number of basis functions               ...    182
Max core memory                         ...   1024 MB

Electric properties:
Dipole moment                           ... YES
Quadrupole moment                       ...  NO
Static polarizability (Dipole/Dipole)   ...  NO
Static polarizability (Dipole/Quad.)    ...  NO
Static polarizability (Quad./Quad.)     ...  NO
Static polarizability (Velocity)        ...  NO

Atomic electric properties:
Dipole moment                           ...  NO
Quadrupole moment                       ...  NO
Static polarizability                   ...  NO

Choice of electric origin               ... Center of mass
Position of electric origin             ...     0.806006     0.118981     0.142122

General magnetic properties:
Magnetizability                         ...  NO

EPR properties:
g-Tensor (aka g-matrix)                 ...  NO
Zero-Field splitting spin-orbit         ...  NO
Zero-field splitting spin-spin          ...  NO
Hyperfine couplings                     ...  NO (   0 nuclei)
Quadrupole couplings                    ...  NO (   0 nuclei)
Contact density                         ...  NO (   0 nuclei)

NMR properties:
Chemical shifts                         ...  NO (   0 nuclei)
Spin-rotation constants                 ...  NO (   0 nuclei)
Spin-spin couplings                     ...  NO (   0 nuclei,    0 pairs)

Choice of magnetic origin               ... GIAO
Position of magnetic origin             ...     0.000000     0.000000     0.000000

Properties with geometric perturbations:
SCF Hessian                             ...  NO
IR spectrum                             ...  NO
VCD spectrum                            ...  NO
X-ray spectroscopy properties:
SCF XES/XAS/RIXS spectra                ...  NO


-------------
DIPOLE MOMENT
-------------

Method             : SCF
Type of density    : Electron Density
Multiplicity       :   3
Irrep              :   0
Energy             :  -153.7778946537074773 Eh
Relativity type    : 
Basis              : AO
                                X                 Y                 Z
Electronic contribution:      1.542968346       1.612918854      -0.272531265
Nuclear contribution   :     -2.170895530      -2.027140213       0.508287675
                        -----------------------------------------
Total Dipole Moment    :     -0.627927184      -0.414221359       0.235756410
                        -----------------------------------------
Magnitude (a.u.)       :      0.788322883
Magnitude (Debye)      :      2.003757528



--------------------
Rotational spectrum 
--------------------
 
Rotational constants in cm-1:             1.476632             0.328291             0.299949 
Rotational constants in MHz :         44268.300707          9841.905088          8992.246563 

Dipole components along the rotational axes: 
x,y,z [a.u.] :     0.617846     0.489576    -0.005931 
x,y,z [Debye]:     1.570439     1.244403    -0.015075 

 

-------------
DIPOLE MOMENT
-------------

Method             : TDA/CIS
Type of density    : Electron Density
Level              : Relaxed density
State              :   1
Multiplicity       :   3
Irrep              :   0
Energy             :     0.0000000000000000 Eh
Relativity type    : 
Basis              : AO
                                X                 Y                 Z
Electronic contribution:      1.565322870       1.649837824      -0.293923791
Nuclear contribution   :     -2.170895530      -2.027140213       0.508287675
                        -----------------------------------------
Total Dipole Moment    :     -0.605572661      -0.377302389       0.214363884
                        -----------------------------------------
Magnitude (a.u.)       :      0.745001487
Magnitude (Debye)      :      1.893643289



--------------------
Rotational spectrum 
--------------------
 
Rotational constants in cm-1:             1.476632             0.328291             0.299949 
Rotational constants in MHz :         44268.300707          9841.905088          8992.246563 

Dipole components along the rotational axes: 
x,y,z [a.u.] :     0.579419     0.468097     0.013626 
x,y,z [Debye]:     1.472767     1.189808     0.034634 

 

Dipole moment calculation done in   0.0 sec 

Maximum memory used throughout the entire PROP-calculation: 7.4 MB
[1741608817.928621] [ohm:3262314:0]        ib_iface.c:1059 UCX  ERROR ibv_create_cq(cqe=256) failed: Connection timed out
[1741608817.939697] [ohm:3262291:0]        ib_iface.c:1059 UCX  ERROR ibv_create_cq(cqe=256) failed: Connection timed out
[1741608817.941916] [ohm:3262316:0]        ib_iface.c:1059 UCX  ERROR ibv_create_cq(cqe=256) failed: Connection timed out
[1741608817.954861] [ohm:3262287:0]        ib_iface.c:1059 UCX  ERROR ibv_create_cq(cqe=256) failed: Connection timed out
[1741608817.956594] [ohm:3262289:0]        ib_iface.c:1059 UCX  ERROR ibv_create_cq(cqe=256) failed: Connection timed out
[1741608817.965851] [ohm:3262288:0]        ib_iface.c:1059 UCX  ERROR ibv_create_cq(cqe=256) failed: Connection timed out
[1741608817.970258] [ohm:3262336:0]        ib_iface.c:1059 UCX  ERROR ibv_create_cq(cqe=256) failed: Connection timed out
[1741608817.971488] [ohm:3262328:0]        ib_iface.c:1059 UCX  ERROR ibv_create_cq(cqe=256) failed: Connection timed out
[1741608817.978324] [ohm:3262332:0]        ib_iface.c:1059 UCX  ERROR ibv_create_cq(cqe=256) failed: Connection timed out
[1741608817.984326] [ohm:3262339:0]        ib_iface.c:1059 UCX  ERROR ibv_create_cq(cqe=256) failed: Connection timed out
[1741608817.984710] [ohm:3262337:0]        ib_iface.c:1059 UCX  ERROR ibv_create_cq(cqe=256) failed: Connection timed out
[1741608817.991211] [ohm:3262325:0]        ib_iface.c:1059 UCX  ERROR ibv_create_cq(cqe=256) failed: Connection timed out
[1741608817.992254] [ohm:3262338:0]        ib_iface.c:1059 UCX  ERROR ibv_create_cq(cqe=256) failed: Connection timed out
[1741608817.996892] [ohm:3262344:0]        ib_iface.c:1059 UCX  ERROR ibv_create_cq(cqe=256) failed: Connection timed out
[1741608818.011474] [ohm:3262317:0]        ib_iface.c:1059 UCX  ERROR ibv_create_cq(cqe=256) failed: Connection timed out
[1741608818.011577] [ohm:3262342:0]        ib_iface.c:1059 UCX  ERROR ibv_create_cq(cqe=256) failed: Connection timed out
[1741608818.013679] [ohm:3262330:0]        ib_iface.c:1059 UCX  ERROR ibv_create_cq(cqe=256) failed: Connection timed out
[1741608818.016822] [ohm:3262335:0]        ib_iface.c:1059 UCX  ERROR ibv_create_cq(cqe=256) failed: Connection timed out
[1741608818.020263] [ohm:3262340:0]        ib_iface.c:1059 UCX  ERROR ibv_create_cq(cqe=256) failed: Connection timed out
[1741608818.046439] [ohm:3262320:0]        ib_iface.c:1059 UCX  ERROR ibv_create_cq(cqe=256) failed: Connection timed out
[1741608818.062613] [ohm:3262347:0]        ib_iface.c:1059 UCX  ERROR ibv_create_cq(cqe=256) failed: Connection timed out
[1741608818.079124] [ohm:3262322:0]        ib_iface.c:1059 UCX  ERROR ibv_create_cq(cqe=256) failed: Connection timed out
[1741608818.084972] [ohm:3262423:0]        ib_iface.c:1059 UCX  ERROR ibv_create_cq(cqe=256) failed: Connection timed out
[1741608818.092663] [ohm:3262345:0]        ib_iface.c:1059 UCX  ERROR ibv_create_cq(cqe=256) failed: Connection timed out
[1741608818.099881] [ohm:3262349:0]        ib_iface.c:1059 UCX  ERROR ibv_create_cq(cqe=256) failed: Connection timed out
[1741608818.099999] [ohm:3262373:0]        ib_iface.c:1059 UCX  ERROR ibv_create_cq(cqe=256) failed: Connection timed out
[1741608818.103370] [ohm:3262341:0]        ib_iface.c:1059 UCX  ERROR ibv_create_cq(cqe=256) failed: Connection timed out
[1741608818.121062] [ohm:3262402:0]        ib_iface.c:1059 UCX  ERROR ibv_create_cq(cqe=256) failed: Connection timed out
[1741608818.122927] [ohm:3262407:0]        ib_iface.c:1059 UCX  ERROR ibv_create_cq(cqe=256) failed: Connection timed out
[1741608818.134066] [ohm:3262396:0]        ib_iface.c:1059 UCX  ERROR ibv_create_cq(cqe=256) failed: Connection timed out
[1741608818.139180] [ohm:3262406:0]        ib_iface.c:1059 UCX  ERROR ibv_create_cq(cqe=256) failed: Connection timed out
[1741608818.146367] [ohm:3262350:0]        ib_iface.c:1059 UCX  ERROR ibv_create_cq(cqe=256) failed: Connection timed out
[1741608818.149076] [ohm:3262343:0]        ib_iface.c:1059 UCX  ERROR ibv_create_cq(cqe=256) failed: Connection timed out
[1741608818.150209] [ohm:3262433:0]        ib_iface.c:1059 UCX  ERROR ibv_create_cq(cqe=256) failed: Connection timed out
[1741608818.152369] [ohm:3262362:0]        ib_iface.c:1059 UCX  ERROR ibv_create_cq(cqe=256) failed: Connection timed out
[1741608818.156110] [ohm:3262357:0]        ib_iface.c:1059 UCX  ERROR ibv_create_cq(cqe=256) failed: Connection timed out
[1741608818.161298] [ohm:3262411:0]        ib_iface.c:1059 UCX  ERROR ibv_create_cq(cqe=256) failed: Connection timed out
[1741608818.163929] [ohm:3262366:0]        ib_iface.c:1059 UCX  ERROR ibv_create_cq(cqe=256) failed: Connection timed out
[1741608818.168802] [ohm:3262378:0]        ib_iface.c:1059 UCX  ERROR ibv_create_cq(cqe=256) failed: Connection timed out
[1741608818.171010] [ohm:3262371:0]        ib_iface.c:1059 UCX  ERROR ibv_create_cq(cqe=256) failed: Connection timed out
[1741608818.173971] [ohm:3262368:0]        ib_iface.c:1059 UCX  ERROR ibv_create_cq(cqe=256) failed: Connection timed out
[1741608818.175416] [ohm:3262412:0]        ib_iface.c:1059 UCX  ERROR ibv_create_cq(cqe=256) failed: Connection timed out
[1741608818.176205] [ohm:3262426:0]        ib_iface.c:1059 UCX  ERROR ibv_create_cq(cqe=256) failed: Connection timed out
[1741608818.178756] [ohm:3262293:0]        ib_iface.c:1059 UCX  ERROR ibv_create_cq(cqe=256) failed: Connection timed out
[1741608818.182441] [ohm:3262298:0]        ib_iface.c:1059 UCX  ERROR ibv_create_cq(cqe=256) failed: Connection timed out
[1741608818.182901] [ohm:3262351:0]        ib_iface.c:1059 UCX  ERROR ibv_create_cq(cqe=256) failed: Connection timed out
[1741608818.185368] [ohm:3262358:0]        ib_iface.c:1059 UCX  ERROR ibv_create_cq(cqe=256) failed: Connection timed out
[1741608818.189842] [ohm:3262348:0]        ib_iface.c:1059 UCX  ERROR ibv_create_cq(cqe=256) failed: Connection timed out
[1741608818.195570] [ohm:3262346:0]        ib_iface.c:1059 UCX  ERROR ibv_create_cq(cqe=256) failed: Connection timed out
[1741608818.196084] [ohm:3262354:0]        ib_iface.c:1059 UCX  ERROR ibv_create_cq(cqe=256) failed: Connection timed out
[1741608818.196217] [ohm:3262431:0]        ib_iface.c:1059 UCX  ERROR ibv_create_cq(cqe=256) failed: Connection timed out
[1741608818.205420] [ohm:3262415:0]        ib_iface.c:1059 UCX  ERROR ibv_create_cq(cqe=256) failed: Connection timed out
[1741608818.210941] [ohm:3262290:0]        ib_iface.c:1059 UCX  ERROR ibv_create_cq(cqe=256) failed: Connection timed out
[1741608818.212373] [ohm:3262389:0]        ib_iface.c:1059 UCX  ERROR ibv_create_cq(cqe=256) failed: Connection timed out
[1741608818.216154] [ohm:3262297:0]        ib_iface.c:1059 UCX  ERROR ibv_create_cq(cqe=256) failed: Connection timed out
[1741608818.216294] [ohm:3262296:0]        ib_iface.c:1059 UCX  ERROR ibv_create_cq(cqe=256) failed: Connection timed out
[1741608818.217405] [ohm:3262385:0]        ib_iface.c:1059 UCX  ERROR ibv_create_cq(cqe=256) failed: Connection timed out
[1741608818.218766] [ohm:3262292:0]        ib_iface.c:1059 UCX  ERROR ibv_create_cq(cqe=256) failed: Connection timed out
[1741608818.218782] [ohm:3262294:0]        ib_iface.c:1059 UCX  ERROR ibv_create_cq(cqe=256) failed: Connection timed out
[1741608818.223674] [ohm:3262398:0]        ib_iface.c:1059 UCX  ERROR ibv_create_cq(cqe=256) failed: Connection timed out
[1741608818.224129] [ohm:3262421:0]        ib_iface.c:1059 UCX  ERROR ibv_create_cq(cqe=256) failed: Connection timed out
[1741608818.224322] [ohm:3262313:0]        ib_iface.c:1059 UCX  ERROR ibv_create_cq(cqe=256) failed: Connection timed out
[1741608818.224720] [ohm:3262286:0]        ib_iface.c:1059 UCX  ERROR ibv_create_cq(cqe=256) failed: Connection timed out
[1741608818.225577] [ohm:3262295:0]        ib_iface.c:1059 UCX  ERROR ibv_create_cq(cqe=256) failed: Connection timed out

--------------------------------
SUGGESTED CITATIONS FOR THIS RUN
--------------------------------

Below you find a list of papers that are relevant to this ORCA run
We neither can nor want to force you to cite these papers, but we appreciate if you do
You receive ORCA, which is the product of decades of hard work by many enthusiastic individuals, for free
The only thing we kindly ask in return is that you cite our papers,
We deeply appreciate it, if you show your appreciation for ORCA by not just citing the generic ORCA reference.

Please note that relegating all ORCA citations to the supporting information does *not* help us.
SI sections are not indexed - citations you put there will not count into any citation statistics
But we need these citations in order to attract the funding resources that allow us to do what we are doing

Therefore, if you are a happy ORCA user, please consider citing a few of the papers listed below in the main body of your paper

In addition to the list printed below, the program has created the file orca.bibtex that contains the list in bibtex format
You can import this file easily into all common literature databanks and citation aid programs


List of essential papers. We consider these as the minimum necessary citations

  1. Neese,F.
     Software update: the ORCA program system, version 5.0
     WIRES Comput. Molec. Sci., 2022 12(1)e1606
     doi.org/10.1002/wcms.1606

List of papers to cite with high priority. The work reported in these papers was absolutely
necessary for this run to complete.
Our perspective: the developers of density functionals and basis sets usually get cited in chemistry papers
Good! But without the algorithms to do something with them, the functionals or basis sets would not do anything.
Hence, in our opinion, the algorithm design and method developments papers are equally worthy of getting cited

  1. Neese,F.; Olbrich,G.
     Efficient use of the resolution of the identity approximation in time-dependent density functional calculations with hybrid density functionals
     Chem. Phys. Lett., 2002 362 170-178
     doi.org/10.1016/s0009-2614(02)01053-9
  2. Neese,F.
     An improvement of the resolution of the identity approximation for the formation of the Coulomb matrix
     J. Comp. Chem., 2003 24(14)1740-1747
     doi.org/10.1002/jcc.10318
  3. Neese,F.; Wennmohs,F.; Hansen,A.; Becker,U.
     Efficient, approximate and parallel Hartree-Fock and hybrid DFT calculations. A 'chain-of-spheres' algorithm for the Hartree-Fock exchange
     Chem. Phys., 2009 356(1-3)98-109
     doi.org/10.1016/j.chemphys.2008.10.036
  4. Petrenko,T.; Kossmann,S.; Neese,F.
     Efficient time-dependent density functional theory approximations for hybrid density functionals: Analytical gradients and parallelization
     J. Chem. Phys., 2011 134 054116
     doi.org/10.1063/1.3533441
  5. Helmich-Paris,B.; de Souza,B.; Neese,F.; Izsák,R.
     An improved chain of spheres for exchange algorithm
     J. Chem. Phys., 2021 155 104109
     doi.org/doi: 10.1063/5.0058766.
  6. Neese,F.
     The SHARK Integral Generation and Digestion System
     J. Comp. Chem., 2022  1-16
     doi.org/10.1002/jcc.26942
  7. Lehtola,S.; Steigemann,C.; Oliveira,M.; Marques,M.
     Recent developments in Libxc - A comprehensive library of functionals for density functional theory
     Software X, 2018 7 
     doi.org/10.1016/j.softx.2017.11.002
  8. Grimme,S.; Antony,J.; Ehrlich,S.; Krieg,H.
     A consistent and accurate ab initio parametrization of density functional dispersion correction (DFT-D) for the 94 elements H-Pu
     J. Chem. Phys., 2010 132 154104-XXXX
     doi.org/10.1063/1.3382344
  9. Grimme,S.; Ehrlich,S.; Goerigk,L.
     Effect of the damping function in dispersion corrected density functional theory
     J. Comput. Chem., 2011 32(7)1456-1465
     doi.org/10.1002/jcc.21759

List of suggested additional citations. These are papers that are important in the 'surrounding' of 
of this run, or papers that preceded the highly important papers. If you like your results we are grateful for a citation.

  1. Izsak,R.; Neese,F.
     An overlap fitted chain of spheres exchange method
     J. Chem. Phys., 2011 135 144105
     doi.org/10.1063/1.3646921
  2. Izsak,R.; Hansen,A.; Neese,F.
     The resolution of identity and chain of spheres approximations for the LPNO-CCSD singles Fock term
     Molec. Phys., 2012 110 2413-2417
     doi.org/10.1080/00268976.2012.687466
  3. Neese,F.
     The ORCA program system
     WIRES Comput. Molec. Sci., 2012 2(1)73-78
     doi.org/10.1002/wcms.81
  4. Izsak,R.; Neese,F.; Klopper,W.
     Robust fitting techniques in the chain of spheres approximation to the Fock exchange: The role of the complementary space
     J. Chem. Phys., 2013 139 
     doi.org/10.1063/1.4819264
  5. Neese,F.
     Software update: the ORCA program system, version 4.0
     WIRES Comput. Molec. Sci., 2018 8(1)1-6
     doi.org/10.1002/wcms.1327
  6. Neese,F.; Wennmohs,F.; Becker,U.; Riplinger,C.
     The ORCA quantum chemistry program package
     J. Chem. Phys., 2020 152 Art. No. L224108
     doi.org/10.1063/5.0004608

List of optional additional citations

  1. Neese,F.
     Approximate second-order SCF convergence for spin unrestricted wavefunctions
     Chem. Phys. Lett., 2000 325(1-3)93-98
     doi.org/10.1016/s0009-2614(00)00662-x

Timings for individual modules:

Sum of individual times          ...       23.877 sec (=   0.398 min)
Startup calculation              ...        2.392 sec (=   0.040 min)  10.0 %
SCF iterations                   ...        9.771 sec (=   0.163 min)  40.9 %
Property integrals               ...        2.054 sec (=   0.034 min)   8.6 %
Property calculations            ...        1.997 sec (=   0.033 min)   8.4 %
CIS module                       ...        7.663 sec (=   0.128 min)  32.1 %
                             ****ORCA TERMINATED NORMALLY****
TOTAL RUN TIME: 0 days 0 hours 0 minutes 25 seconds 943 msec
