
                                 *****************
                                 * O   R   C   A *
                                 *****************

                                            #,                                       
                                            ###                                      
                                            ####                                     
                                            #####                                    
                                            ######                                   
                                           ########,                                 
                                     ,,################,,,,,                         
                               ,,#################################,,                 
                          ,,##########################################,,             
                       ,#########################################, ''#####,          
                    ,#############################################,,   '####,        
                  ,##################################################,,,,####,       
                ,###########''''           ''''###############################       
              ,#####''   ,,,,##########,,,,          '''####'''          '####       
            ,##' ,,,,###########################,,,                        '##       
           ' ,,###''''                  '''############,,,                           
         ,,##''                                '''############,,,,        ,,,,,,###''
      ,#''                                            '''#######################'''  
     '                                                          ''''####''''         
             ,#######,   #######,   ,#######,      ##                                
            ,#'     '#,  ##    ##  ,#'     '#,    #''#        ,####,   ,####,        
            ##       ##  ##   ,#'  ##            #'  '#       #'       #'  '#        
            ##       ##  #######   ##           ,######,      #####,   #    #        
            '#,     ,#'  ##    ##  '#,     ,#' ,#      #,     #,   #   #,  ,#        
             '#######'   ##     ##  '#######'  #'      '#     '####' # '####'        



                #########################################################
                #                        -***-                          #
                #          Department of theory and spectroscopy        #
                #                                                       #
                #                      Frank Neese                      #
                #                                                       #
                #     Directorship, Architecture, Infrastructure        #
                #                    SHARK, DRIVERS                     #
                #        Core code/Algorithms in most modules           #
                #                                                       #
                #        Max Planck Institute fuer Kohlenforschung      #
                #                Kaiser Wilhelm Platz 1                 #
                #                 D-45470 Muelheim/Ruhr                 #
                #                      Germany                          #
                #                                                       #
                #                  All rights reserved                  #
                #                        -***-                          #
                #########################################################


                         Program Version 6.0.0  -   RELEASE  -


 With contributions from (in alphabetic order):
   Daniel Aravena         : Magnetic Suceptibility
   Michael Atanasov       : Ab Initio Ligand Field Theory (pilot matlab implementation)
   Alexander A. Auer      : GIAO ZORA, VPT2 properties, NMR spectrum
   Ute Becker             : All parallelization in ORCA, NUMFREQ, NUMCALC
   Giovanni Bistoni       : ED, misc. LED, open-shell LED, HFLD
   Martin Brehm           : Molecular dynamics
   Dmytro Bykov           : pre 5.0 version of the SCF Hessian
   Marcos Casanova-Páez   : Triplet and SCS-CIS(D). UHF-(DLPNO)-IP/EA/STEOM-CCSD. UHF-CVS-IP/STEOM-CCSD
   Vijay G. Chilkuri      : MRCI spin determinant printing, contributions to CSF-ICE
   Pauline Colinet        : FMM embedding
   Dipayan Datta          : RHF DLPNO-CCSD density
   Achintya Kumar Dutta   : EOM-CC, STEOM-CC
   Nicolas Foglia         : Exact transition moments, OPA infrastructure, MCD improvements
   Dmitry Ganyushin       : Spin-Orbit,Spin-Spin,Magnetic field MRCI
   Miquel Garcia          : C-PCM and meta-GGA Hessian, CCSD/C-PCM, Gaussian charge scheme
   Tiago L. C. Gouveia    : GS-ROHF, GS-ROCIS
   Yang Guo               : DLPNO-NEVPT2, F12-NEVPT2, CIM, IAO-localization
   Andreas Hansen         : Spin unrestricted coupled pair/coupled cluster methods
   Ingolf Harden          : AUTO-CI MPn and infrastructure 
   Benjamin Helmich-Paris : MC-RPA, TRAH-(SCF,CASSCF), AVAS, COSX integrals, SCF dyn. polar.
   Lee Huntington         : MR-EOM, pCC
   Robert Izsak           : Overlap fitted RIJCOSX, COSX-SCS-MP3, EOM
   Riya Kayal             : Wick's Theorem for AUTO-CI, AUTO-CI UHF-CCSDT
   Emily Kempfer          : AUTO-CI, RHF CISDT and CCSDT
   Christian Kollmar      : KDIIS, OOCD, Brueckner-CCSD(T), CCSD density, CASPT2, CASPT2-K, improved NEVPT2
   Axel Koslowski         : Symmetry handling
   Simone Kossmann        : Meta GGA functionals, TD-DFT gradient, OOMP2, (MP2 Hessian; deprecated post 5.0)
   Lucas Lang             : DCDCAS
   Marvin Lechner         : AUTO-CI (C++ implementation), FIC-MRCC
   Spencer Leger          : CASSCF response
   Dagmar Lenk            : GEPOL surface, SMD, ORCA-2-JSON
   Dimitrios Liakos       : Extrapolation schemes; Compound Job, initial MDCI parallelization
   Dimitrios Manganas     : Further ROCIS development; embedding schemes. LFT, Crystal Embedding
   Dimitrios Pantazis     : SARC Basis sets
   Anastasios Papadopoulos: AUTO-CI, single reference methods and gradients
   Taras Petrenko         : pre 6.0 DFT Hessian and TD-DFT gradient, (ASA, deprecated), ECA, 1-Electron XAS/XES, NRVS
   Peter Pinski           : DLPNO-MP2, DLPNO-MP2 Gradient
   Christoph Reimann      : Effective Core Potentials
   Marius Retegan         : Local ZFS, SOC
   Christoph Riplinger    : Optimizer, TS searches, QM/MM, DLPNO-CCSD(T), (RO)-DLPNO pert. Triples
   Michael Roemelt        : Original ROCIS implementation
   Masaaki Saitow         : Open-shell DLPNO-CCSD energy and density
   Barbara Sandhoefer     : DKH picture change effects
   Kantharuban Sivalingam : CASSCF convergence/infrastructure, NEVPT2 and variants, FIC-MRCI
   Bernardo de Souza      : ESD, SOC TD-DFT
   Georgi Stoychev        : AutoAux, RI-MP2 NMR, DLPNO-MP2 response, X2C
   Van Anh Tran           : RI-MP2 g-tensors
   Willem Van den Heuvel  : Paramagnetic NMR
   Zikuan Wang            : NOTCH, Electric field optimization 
   Frank Wennmohs         : Technical directorship and infrastructure
   Hang Xu                : AUTO-CI-Response properties 


 We gratefully acknowledge several colleagues who have allowed us to
 interface, adapt or use parts of their codes:
   Stefan Grimme, W. Hujo, H. Kruse, P. Pracht,  : VdW corrections, initial TS optimization,
                  C. Bannwarth, S. Ehlert,         DFT functionals, gCP, sTDA/sTD-DF
                  L. Wittmann, M. Mueller
   Ed Valeev, F. Pavosevic, A. Kumar             : LibInt (2-el integral package), F12 methods
   Garnet Chan, S. Sharma, J. Yang, R. Olivares  : DMRG
   Ulf Ekstrom                                   : XCFun DFT Library
   Mihaly Kallay                                 : mrcc  (arbitrary order and MRCC methods)
   Frank Weinhold                                : gennbo (NPA and NBO analysis)
   Simon Mueller                                 : openCOSMO-RS
   Christopher J. Cramer and Donald G. Truhlar   : smd solvation model
   Lars Goerigk                                  : TD-DFT with DH, B97 family of functionals
   V. Asgeirsson, H. Jonsson                     : NEB implementation
   FAccTs GmbH                                   : IRC, NEB, NEB-TS, DLPNO-Multilevel, CI-OPT
                                                   MM, QMMM, 2- and 3-layer-ONIOM, Crystal-QMMM,
                                                   LR-CPCM, SF, NACMEs, symmetry and pop. for TD-DFT,
                                                   nearIR, NL-DFT gradient (VV10), updates on ESD,
                                                   ML-optimized integration grids, MBIS, APM,
                                                   GOAT, DOCKER, SOLVATOR, interface openCOSMO-RS
   S Lehtola, MJT Oliveira, MAL Marques          : LibXC Library
   Liviu Ungur et al                             : ANISO software


 Your calculation uses the libint2 library for the computation of 2-el integrals
 For citations please refer to: http://libint.valeyev.net

 Your ORCA version has been built with support for libXC version: 6.2.2
 For citations please refer to: https://libxc.gitlab.io

 This ORCA versions uses:
   CBLAS   interface :  Fast vector & matrix operations
   LAPACKE interface :  Fast linear algebra routines
   SCALAPACK package :  Parallel linear algebra routines
   Shared memory     :  Shared parallel matrices
   BLAS/LAPACK       :  OpenBLAS 0.3.27  USE64BITINT DYNAMIC_ARCH NO_AFFINITY Zen SINGLE_THREADED
        Core in use  :  Zen
   Copyright (c) 2011-2014, The OpenBLAS Project


Your calculation utilizes the atom-pairwise dispersion correction
with the Becke-Johnson damping scheme (D3BJ)


Warning: RI is on but no J-basis has been assigned. Assigning Def2/J (nothing to worry about!)
================================================================================

----- Orbital basis set information -----
Your calculation utilizes the basis: def2-TZVPPD
   F. Weigend and R. Ahlrichs, Phys. Chem. Chem. Phys. 7, 3297 (2005).
   D. Rappoport and F. Furche, J. Chem. Phys. 133, 134105 (2010)
   D. Rappoport, J. Chem. Phys. 155, 124102 (2021).

----- AuxJ basis set information -----
Your calculation utilizes the auxiliary basis: def2/J
   F. Weigend, Phys. Chem. Chem. Phys. 8, 1057 (2006).

================================================================================
                                        WARNINGS
                       Please study these warnings very carefully!
================================================================================

Using LibXC functional ID 531 : wB97M-V exchange-correlation functional
[ 1]  N. Mardirossian and M. Head-Gordon.,  J. Chem. Phys. 144, 214110 (2016)
Using LibXC functional ID 531 : wB97M-V exchange-correlation functional
[ 1]  N. Mardirossian and M. Head-Gordon.,  J. Chem. Phys. 144, 214110 (2016)

WARNING: B97M-V or wB97M-V functional requested.
  ===> : libXC variant has now been activated.
         Any manually given DFX/HFX/RangeSep scaling parameters are IGNORED!

Your calculation utilizes LibXC
 by S Lehtola, C Steigemann, MJT Oliveira & MAL Marques
Please cite in your paper:
 S Lehtola, C Steigemann, MJT Oliveira & MAL Marques, SoftwareX, 7, (2018), 1.
   


WARNING: Geometry Optimization
  ===> : Switching off AutoStart
         For restart on a previous wavefunction, please use MOREAD

================================================================================
                                       INPUT FILE
================================================================================
NAME = orca.inp
|  1> ! opt def2-TZVPPD wB97M-D3BJ 
|  2> %pal nprocs 8 end%pal nprocs 64 end 
|  3> %geom Constraints 
|  4> {B 9 8 3.5 C} 
|  5> {A 8 9 11 98.0 C} 
|  6> end 
|  7> MaxIter 300 
|  8> end 
|  9> *xyz 0 1 
| 10> O   2.98579685529314 0.88758230159078 -0.86184571092411
| 11> O   -0.03983205397054 0.68929041702508 -2.10362336723772
| 12> O   0.93431434349854 -3.13274393337945 -0.68767288184107
| 13> O   -3.75829998830163 -0.84727300865116 -0.0472717177755
| 14> N   0.21184538946282 -1.54604804365365 0.7617588924445
| 15> N   -2.13631993928911 0.03188773433438 1.27350571071531
| 16> N   2.02598672506387 -1.14318467211666 -0.64531219127023
| 17> N   -1.91814233924584 0.03137116037665 -1.04498946748291
| 18> C   1.18097737274226 0.71693507080484 0.70173889017321
| 19> C   -0.20686880480777 1.27024627933494 0.21345042231937
| 20> C   0.41441080275909 -0.34173258966541 1.52336266615173
| 21> C   -0.82922175114212 0.58960593673968 1.44434972027296
| 22> C   1.92822011286806 1.69488653817281 1.5963734975385
| 23> C   -0.37809776891576 2.77134929626422 0.04819649358288
| 24> C   2.1403947470937 0.1972384729179 -0.35038567829864
| 25> C   -0.67361678962426 0.6214190571346 -1.0793014500539
| 26> C   1.04142578622994 -2.02697492875068 -0.21027082435993
| 27> C   -2.68467002550422 -0.30396816036989 0.07167054343891
| 28> H   0.80817443950001 -0.54572267081061 2.51895215321335
| 29> H   -0.83785272399001 1.27240685039143 2.28901317073582
| 30> H   2.31167340578204 2.52284411740894 1.00913016264629
| 31> H   1.28982602448342 2.08257620823614 2.38710022492991
| 32> H   2.77390820759972 1.19140411795486 2.06045858523949
| 33> H   -1.41857211141493 3.00964947214868 -0.16882755561625
| 34> H   -0.09065531563179 3.29799318042223 0.95389844358819
| 35> H   0.23426221611057 3.12492645074476 -0.77764887675592
| 36> H   -0.46772570547622 -2.21560145172536 1.0787081584806
| 37> H   -2.71769301149571 -0.17090724573546 2.06627440900372
| 38> H   2.60065167263658 -1.49057255715425 -1.3966820077142
| 39> H   -2.27169977231386 -0.32388339999036 -1.91951041514436
| 40> *
| 41> 
| 42>                          ****END OF INPUT****
================================================================================

                       *****************************
                       * Geometry Optimization Run *
                       *****************************

Geometry optimization settings:
Update method            Update   .... BFGS
Choice of coordinates    CoordSys .... (2022) Redundant Internals
Initial Hessian          InHess   .... Almloef's Model
Max. no of cycles        MaxIter  .... 300

Convergence Tolerances:
Energy Change            TolE     ....  5.0000e-06 Eh
Max. Gradient            TolMAXG  ....  3.0000e-04 Eh/bohr
RMS Gradient             TolRMSG  ....  1.0000e-04 Eh/bohr
Max. Displacement        TolMAXD  ....  4.0000e-03 bohr
RMS Displacement         TolRMSD  ....  2.0000e-03 bohr
Strict Convergence                .... False

------------------------------------------------------------------------------
                        ORCA OPTIMIZATION COORDINATE SETUP
------------------------------------------------------------------------------

The optimization will be done in redundant internal coordinates (2022)
Making redundant internal coordinates   ...  (2022 redundants) done
Evaluating the initial hessian          ...  (Almloef) done
Evaluating the coordinates              ...  done
Calculating the B-matrix                .... done
Calculating the G-matrix                .... done
Diagonalizing the G-matrix              .... done
Decreasing the constraint accuracy, check your results carefully!
The first mode is                       ....   88
The number of degrees of freedom        ....   84
Storing new coordinates                 .... done

    -----------------------------------------------------------------
                    Redundant Internal Coordinates


    -----------------------------------------------------------------
         Definition                    Initial Value    Approx d2E/dq
    -----------------------------------------------------------------
      1. B(C   9,C   8)                  3.5000         0.320344 C 
      2. B(C  10,N   4)                  1.4342         0.466977   
      3. B(C  10,C   8)                  2.0446         0.355045   
      4. B(C  11,C   9)                  1.3573         0.362641   
      5. B(C  11,C  10)                  2.4443         0.339897   
      6. B(C  11,N   5)                  1.4564         0.480746   
      7. B(C  12,C   8)                  1.5415         0.385345   
      8. B(C  13,C   9)                  1.5369         0.387770   
      9. B(C  14,O   0)                  1.2347         1.102736   
     10. B(C  14,N   6)                  1.4238         0.586441   
     11. B(C  14,C   8)                  1.4674         0.393636   
     12. B(C  15,O   1)                  1.2114         1.098286   
     13. B(C  15,N   7)                  1.3688         0.585369   
     14. B(C  15,C   9)                  1.5408         0.387723   
     15. B(C  16,O   2)                  1.2182         1.087341   
     16. B(C  16,N   4)                  1.4516         0.612509   
     17. B(C  16,N   6)                  1.5367         0.554006   
     18. B(C  17,O   3)                  1.2168         1.087510   
     19. B(C  17,N   5)                  1.3485         0.617844   
     20. B(C  17,N   7)                  1.3543         0.548746   
     21. B(H  18,C  10)                  1.1079         0.360246   
     22. B(H  19,C  11)                  1.0984         0.365213   
     23. B(H  20,C  12)                  1.1024         0.366664   
     24. B(H  21,C  12)                  1.1078         0.363151   
     25. B(H  22,C  12)                  1.0963         0.362563   
     26. B(H  23,C  13)                  1.1015         0.361089   
     27. B(H  24,C  13)                  1.0864         0.364889   
     28. B(H  25,C  13)                  1.0998         0.363812   
     29. B(H  26,N   4)                  1.0452         0.440286   
     30. B(H  27,N   5)                  1.0042         0.442686   
     31. B(H  28,N   6)                  1.0315         0.436367   
     32. B(H  29,N   7)                  1.0131         0.435953   
     33. A(C  16,N   4,H  26)          115.0931         0.358987   
     34. A(C  10,N   4,H  26)          119.4175         0.342908   
     35. A(C  10,N   4,C  16)          123.8922         0.406446   
     36. A(C  11,N   5,H  27)          119.1347         0.344898   
     37. A(C  11,N   5,C  17)          128.3695         0.409168   
     38. A(C  17,N   5,H  27)          112.4353         0.359850   
     39. A(C  14,N   6,H  28)          114.6029         0.355801   
     40. A(C  16,N   6,H  28)          114.2463         0.352388   
     41. A(C  14,N   6,C  16)          129.5849         0.415733   
     42. A(C  15,N   7,C  17)          126.3326         0.414893   
     43. A(C  17,N   7,H  29)          115.7106         0.351763   
     44. A(C  15,N   7,H  29)          117.5312         0.355634   
     45. A(C   9,C   8,C  14)          134.3336         0.357126   
     46. A(C  10,C   8,C  12)          123.8733         0.362122   
     47. A(C  10,C   8,C  14)          132.3073         0.363441   
     48. A(C   9,C   8,C  12)          120.6579         0.355837   
     49. A(C  12,C   8,C  14)           94.3383         0.368575   
     50. A(C   9,C   8,C  10)           50.8787         0.350937   
     51. A(C   8,C   9,C  15)          103.2827         0.356209   
     52. A(C  11,C   9,C  15)          111.3166         0.363816   
     53. A(C   8,C   9,C  13)          122.3710         0.356216   
     54. A(C  13,C   9,C  15)          109.4990         0.368015   
     55. A(C   8,C   9,C  11)           97.9920         0.352195 C 
     56. A(C  11,C   9,C  13)          111.6518         0.363823   
     57. A(N   4,C  10,C   8)           99.4865         0.371914   
     58. A(N   4,C  10,H  18)          119.9342         0.334496   
     59. A(C   8,C  10,H  18)          107.1869         0.321646   
     60. A(C  11,C  10,H  18)          109.1980         0.319361   
     61. A(N   4,C  10,C  11)           99.8283         0.369136   
     62. A(C   8,C  10,C  11)          121.7422         0.354473   
     63. A(N   5,C  11,C  10)          122.1845         0.370984   
     64. A(C   9,C  11,C  10)           86.3979         0.355748   
     65. A(N   5,C  11,C   9)          117.1576         0.375149   
     66. A(N   5,C  11,H  19)          108.1193         0.336883   
     67. A(C   9,C  11,H  19)          109.6611         0.323489   
     68. A(C  10,C  11,H  19)          111.6770         0.320077   
     69. A(C   8,C  12,H  20)          111.1897         0.326948   
     70. A(C   8,C  12,H  21)          111.3450         0.326430   
     71. A(H  20,C  12,H  21)          108.9619         0.292054   
     72. A(C   8,C  12,H  22)          108.8002         0.326343   
     73. A(H  20,C  12,H  22)          107.4114         0.291979   
     74. A(H  21,C  12,H  22)          109.0301         0.291537   
     75. A(H  23,C  13,H  25)          108.6033         0.291434   
     76. A(C   9,C  13,H  23)          110.4538         0.326461   
     77. A(C   9,C  13,H  24)          110.7708         0.327024   
     78. A(H  23,C  13,H  24)          107.9621         0.291570   
     79. A(C   9,C  13,H  25)          110.1132         0.326865   
     80. A(H  24,C  13,H  25)          108.8728         0.291914   
     81. A(O   0,C  14,C   8)          128.6014         0.440771   
     82. A(N   6,C  14,C   8)          103.2732         0.393922   
     83. A(O   0,C  14,N   6)          128.1248         0.470819   
     84. A(O   1,C  15,N   7)          119.5157         0.470312   
     85. A(O   1,C  15,C   9)          120.9040         0.439248   
     86. A(N   7,C  15,C   9)          119.2916         0.392753   
     87. A(O   2,C  16,N   4)          116.3423         0.473371   
     88. A(O   2,C  16,N   6)          117.2180         0.464736   
     89. A(N   4,C  16,N   6)          126.4372         0.418965   
     90. A(O   3,C  17,N   7)          122.8100         0.463939   
     91. A(N   5,C  17,N   7)          111.4775         0.418900   
     92. A(O   3,C  17,N   5)          125.6901         0.474140   
     93. D(C  11,C   9,C   8,C  10)     15.8625         0.008410   
     94. D(C  11,C   9,C   8,C  12)    -94.8121         0.008410   
     95. D(C  11,C   9,C   8,C  14)    130.5945         0.008410   
     96. D(C  13,C   9,C   8,C  10)    137.8772         0.008410   
     97. D(C  13,C   9,C   8,C  12)     27.2027         0.008410   
     98. D(C  13,C   9,C   8,C  14)   -107.3907         0.008410   
     99. D(N   4,C  10,C   8,C  12)   -158.0881         0.010134   
    100. D(C   8,C  10,N   4,H  26)   -174.0297         0.018626   
    101. D(C  11,C  10,N   4,C  16)    145.8745         0.018626   
    102. D(C  11,C  10,C   8,C  14)   -128.7208         0.010134   
    103. D(N   4,C  10,C   8,C  14)    -20.8499         0.010134   
    104. D(C   8,C  10,N   4,C  16)     21.1044         0.018626   
    105. D(C  11,C  10,N   4,H  26)    -49.2596         0.018626   
    106. D(C  11,C  10,C   8,C  12)     94.0409         0.010134   
    107. D(H  18,C  10,N   4,C  16)    -95.1223         0.018626   
    108. D(N   4,C  10,C   8,C   9)     97.6910         0.010134   
    109. D(C  11,C  10,C   8,C   9)    -10.1799         0.010134   
    110. D(C   9,C  11,N   5,H  27)   -161.5612         0.019770   
    111. D(N   5,C  11,C  10,N   4)     33.1100         0.009355   
    112. D(C   9,C  11,N   5,C  17)     21.4975         0.019770   
    113. D(C  10,C  11,C   9,C   8)    -10.2374         0.010540   
    114. D(C  10,C  11,N   5,C  17)    -82.3551         0.019770   
    115. D(H  19,C  11,N   5,C  17)    145.9512         0.019770   
    116. D(C  10,C  11,C   9,C  13)   -139.8377         0.010540   
    117. D(C  10,C  11,N   5,H  27)     94.5862         0.019770   
    118. D(N   5,C  11,C   9,C  15)    -27.1280         0.010540   
    119. D(N   5,C  11,C  10,H  18)    -93.5154         0.009355   
    120. D(N   5,C  11,C   9,C   8)   -134.8160         0.010540   
    121. D(N   5,C  11,C   9,C  13)     95.5836         0.010540   
    122. D(C  10,C  11,C   9,C  15)     97.4507         0.010540   
    123. D(N   5,C  11,C  10,C   8)    140.7995         0.009355   
    124. D(C   9,C  11,C  10,N   4)    -86.9404         0.009355   
    125. D(C   9,C  11,C  10,C   8)     20.7492         0.009355   
    126. D(C   9,C  11,C  10,H  18)    146.4342         0.009355   
    127. D(H  20,C  12,C   8,C   9)    -89.4500         0.011818   
    128. D(H  20,C  12,C   8,C  10)   -150.4043         0.011818   
    129. D(H  20,C  12,C   8,C  14)     59.8314         0.011818   
    130. D(H  21,C  12,C   8,C   9)     32.2630         0.011818   
    131. D(H  21,C  12,C   8,C  10)    -28.6912         0.011818   
    132. D(H  21,C  12,C   8,C  14)   -178.4555         0.011818   
    133. D(H  23,C  13,C   9,C   8)   -176.4884         0.011960   
    134. D(H  23,C  13,C   9,C  11)    -61.0996         0.011960   
    135. D(H  23,C  13,C   9,C  15)     62.6444         0.011960   
    136. D(H  24,C  13,C   9,C   8)    -56.9192         0.011960   
    137. D(H  24,C  13,C   9,C  11)     58.4697         0.011960   
    138. D(H  24,C  13,C   9,C  15)   -177.7863         0.011960   
    139. D(N   6,C  14,C   8,C  10)      4.3299         0.011517   
    140. D(O   0,C  14,N   6,H  28)     -2.7273         0.027624   
    141. D(C   8,C  14,N   6,C  16)     12.2960         0.027624   
    142. D(C   8,C  14,N   6,H  28)    177.0183         0.027624   
    143. D(O   0,C  14,C   8,C   9)    111.7447         0.011517   
    144. D(O   0,C  14,C   8,C  10)   -175.9263         0.011517   
    145. D(O   0,C  14,C   8,C  12)    -30.3518         0.011517   
    146. D(O   0,C  14,N   6,C  16)   -167.4495         0.027624   
    147. D(N   6,C  14,C   8,C   9)    -67.9991         0.011517   
    148. D(N   7,C  15,C   9,C   8)    128.6616         0.011191   
    149. D(O   1,C  15,N   7,H  29)      1.7838         0.027516   
    150. D(C   9,C  15,N   7,C  17)    -12.1720         0.027516   
    151. D(C   9,C  15,N   7,H  29)    175.6698         0.027516   
    152. D(O   1,C  15,C   9,C   8)    -57.5397         0.011191   
    153. D(O   1,C  15,C   9,C  11)   -161.7492         0.011191   
    154. D(O   1,C  15,N   7,C  17)    173.9421         0.027516   
    155. D(O   1,C  15,C   9,C  13)     74.3101         0.011191   
    156. D(N   7,C  15,C   9,C  11)     24.4521         0.011191   
    157. D(O   2,C  16,N   4,C  10)    168.4013         0.030322   
    158. D(O   2,C  16,N   4,H  26)      2.9449         0.030322   
    159. D(N   6,C  16,N   4,C  10)    -12.1994         0.030322   
    160. D(N   6,C  16,N   4,H  26)   -177.6558         0.030322   
    161. D(O   2,C  16,N   6,C  14)    167.1957         0.024482   
    162. D(O   2,C  16,N   6,H  28)      2.4293         0.024482   
    163. D(N   4,C  16,N   6,C  14)    -12.1990         0.024482   
    164. D(N   4,C  16,N   6,H  28)   -176.9654         0.024482   
    165. D(O   3,C  17,N   5,C  11)    175.0602         0.030894   
    166. D(O   3,C  17,N   5,H  27)     -2.0494         0.030894   
    167. D(N   7,C  17,N   5,C  11)     -6.6276         0.030894   
    168. D(N   7,C  17,N   5,H  27)    176.2627         0.030894   
    169. D(O   3,C  17,N   7,C  15)   -179.0558         0.023995   
    170. D(O   3,C  17,N   7,H  29)     -6.7729         0.023995   
    171. D(N   5,C  17,N   7,C  15)      2.5752         0.023995   
    172. D(N   5,C  17,N   7,H  29)    174.8581         0.023995   
    -----------------------------------------------------------------

Number of atoms                         .... 30
Number of degrees of freedom            .... 172


         *************************************************************
         *                GEOMETRY OPTIMIZATION CYCLE   1            *
         *************************************************************
---------------------------------
CARTESIAN COORDINATES (ANGSTROEM)
---------------------------------
  O      4.395176    0.412906   -0.485471
  O     -0.742547    0.994118   -2.105284
  O      1.173457   -3.044438   -0.637207
  O     -4.288685   -1.021685   -0.236517
  N      0.380749   -1.373093    0.681435
  N     -2.808442    0.140893    1.056074
  N      2.838025   -1.398579   -0.357596
  N     -2.530207    0.054398   -1.158660
  C      2.300090    0.501571    0.755961
  C     -1.011906    1.500845    0.224849
  C      0.579361   -0.256305    1.559081
  C     -1.571538    0.873254    1.290297
  C      3.280884    1.408223    1.525622
  C     -1.424374    2.979849    0.156982
  C      3.340186   -0.093114   -0.091242
  C     -1.385063    0.801685   -1.096535
  C      1.436185   -1.977694   -0.110864
  C     -3.287795   -0.341743   -0.108282
  H      0.768857   -0.427269    2.637158
  H     -1.751625    1.599570    2.094312
  H      3.804229    2.098442    0.843729
  H      2.758276    1.998454    2.303915
  H      4.041473    0.780107    2.003898
  H     -2.516538    3.070172    0.046163
  H     -1.135340    3.502472    1.064534
  H     -0.942893    3.467681   -0.703166
  H     -0.493136   -1.940632    0.762495
  H     -3.392996   -0.094183    1.838017
  H      3.423849   -1.962889   -0.991934
  H     -2.785111   -0.338016   -2.057164

----------------------------
CARTESIAN COORDINATES (A.U.)
----------------------------
  NO LB      ZA    FRAG     MASS         X           Y           Z
   0 O     8.0000    0    15.999    8.305678    0.780279   -0.917407
   1 O     8.0000    0    15.999   -1.403211    1.878610   -3.978410
   2 O     8.0000    0    15.999    2.217512   -5.753153   -1.204147
   3 O     8.0000    0    15.999   -8.104440   -1.930704   -0.446953
   4 N     7.0000    0    14.007    0.719512   -2.594770    1.287726
   5 N     7.0000    0    14.007   -5.307187    0.266249    1.995691
   6 N     7.0000    0    14.007    5.363090   -2.642931   -0.675758
   7 N     7.0000    0    14.007   -4.781398    0.102797   -2.189550
   8 C     6.0000    0    12.011    4.346540    0.947831    1.428559
   9 C     6.0000    0    12.011   -1.912225    2.836187    0.424903
  10 C     6.0000    0    12.011    1.094835   -0.484347    2.946235
  11 C     6.0000    0    12.011   -2.969776    1.650211    2.438309
  12 C     6.0000    0    12.011    6.199973    2.661156    2.883007
  13 C     6.0000    0    12.011   -2.691676    5.631098    0.296653
  14 C     6.0000    0    12.011    6.312037   -0.175960   -0.172422
  15 C     6.0000    0    12.011   -2.617390    1.514964   -2.072151
  16 C     6.0000    0    12.011    2.713996   -3.737300   -0.209502
  17 C     6.0000    0    12.011   -6.213032   -0.645801   -0.204624
  18 H     1.0000    0     1.008    1.452928   -0.807422    4.983506
  19 H     1.0000    0     1.008   -3.310092    3.022749    3.957676
  20 H     1.0000    0     1.008    7.188950    3.965481    1.594416
  21 H     1.0000    0     1.008    5.212386    3.776531    4.353768
  22 H     1.0000    0     1.008    7.637278    1.474189    3.786819
  23 H     1.0000    0     1.008   -4.755568    5.801784    0.087235
  24 H     1.0000    0     1.008   -2.145482    6.618713    2.011678
  25 H     1.0000    0     1.008   -1.781810    6.552967   -1.328790
  26 H     1.0000    0     1.008   -0.931891   -3.667263    1.440907
  27 H     1.0000    0     1.008   -6.411834   -0.177979    3.473349
  28 H     1.0000    0     1.008    6.470137   -3.709323   -1.874483
  29 H     1.0000    0     1.008   -5.263097   -0.638757   -3.887476

--------------------------------
INTERNAL COORDINATES (ANGSTROEM)
--------------------------------
 O      0   0   0     0.000000000000     0.00000000     0.00000000
 O      1   0   0     3.276547224713     0.00000000     0.00000000
 O      2   1   0     4.190682946307    73.29092113     0.00000000
 O      2   1   3     4.518474637089   127.44709352    53.95475711
 N      3   2   1     2.267248928620    60.24193841    80.78937904
 N      4   2   1     2.268963619588    62.92622666    27.43118870
 N      1   2   3     2.256576334345    65.74096506   357.61235796
 N      2   1   3     2.254243334192   127.52491870    57.66431925
 C      1   2   3     2.394011413247    63.06732880   286.37055960
 C      9   1   2     1.571844755014   115.95449945   332.88544696
 C      5   3   2     1.439252850441   151.52652991   286.18182125
 C      6   4   2     1.431343055439   150.83977748   355.05159247
 C      9   1   2     1.521555738675    88.16429934   218.15250995
 C     10   9   1     1.519848178782   118.74569578   289.79399729
 C      1   2   3     1.205350858177    58.56645480   322.99572470
 C      2   1   3     1.206451409160    99.59764305    73.76644980
 C      3   2   1     1.209177686384    47.15301651    46.62139346
 C      4   2   1     1.209135524532    32.99112947    29.98848261
 H     11   5   3     1.089889985995   112.18610762   269.23059945
 H     12   6   4     1.086162016425   109.29975388   150.93446994
 H     13   9   1     1.085082907080   110.22864580    44.99621095
 H     13   9   1     1.087703567048   111.61009477   166.52742608
 H     13   9   1     1.088144232014   109.57581940   286.25790409
 H     14  10   9     1.089253537592   110.20351681   187.26232421
 H     14  10   9     1.086403685061   110.99745457   307.14572518
 H     14  10   9     1.087208412008   109.89763282    67.87223600
 H      5   3   2     1.005273831639    87.18304645   127.88417897
 H      6   4   2     1.003794133283    88.13320973   180.35863417
 H      7   1   2     1.007707668772    89.77821731   104.06503618
 H      8   2   1     1.007966045578    89.29448577   210.74819076

---------------------------
INTERNAL COORDINATES (A.U.)
---------------------------
 O      0   0   0     0.000000000000     0.00000000     0.00000000
 O      1   0   0     6.191776919568     0.00000000     0.00000000
 O      2   1   0     7.919243082615    73.29092113     0.00000000
 O      2   1   3     8.538679607168   127.44709352    53.95475711
 N      3   2   1     4.284479552517    60.24193841    80.78937904
 N      4   2   1     4.287719848851    62.92622666    27.43118870
 N      1   2   3     4.264311272200    65.74096506   357.61235796
 N      2   1   3     4.259902540841   127.52491870    57.66431925
 C      1   2   3     4.524025932519    63.06732880   286.37055960
 C      9   1   2     2.970356112017   115.95449945   332.88544696
 C      5   3   2     2.719793724800   151.52652991   286.18182125
 C      6   4   2     2.704846378470   150.83977748   355.05159247
 C      9   1   2     2.875323643591    88.16429934   218.15250995
 C     10   9   1     2.872096823037   118.74569578   289.79399729
 C      1   2   3     2.277783017241    58.56645480   322.99572470
 C      2   1   3     2.279862757196    99.59764305    73.76644980
 C      3   2   1     2.285014674514    47.15301651    46.62139346
 C      4   2   1     2.284935000161    32.99112947    29.98848261
 H     11   5   3     2.059593589634   112.18610762   269.23059945
 H     12   6   4     2.052548748110   109.29975388   150.93446994
 H     13   9   1     2.050509526980   110.22864580    44.99621095
 H     13   9   1     2.055461856610   111.61009477   166.52742608
 H     13   9   1     2.056294592713   109.57581940   286.25790409
 H     14  10   9     2.058390876454   110.20351681   187.26232421
 H     14  10   9     2.053005435648   110.99745457   307.14572518
 H     14  10   9     2.054526149191   109.89763282    67.87223600
 H      5   3   2     1.899692231395    87.18304645   127.88417897
 H      6   4   2     1.896896006743    88.13320973   180.35863417
 H      7   1   2     1.904291517032    89.77821731   104.06503618
 H      8   2   1     1.904779778434    89.29448577   210.74819076

---------------------
BASIS SET INFORMATION
---------------------
There are 4 groups of distinct atoms

 Group   1 Type O   : 12s7p3d1f contracted to 6s4p3d1f pattern {621111/4111/111/1}
 Group   2 Type N   : 12s6p3d1f contracted to 6s3p3d1f pattern {621111/411/111/1}
 Group   3 Type C   : 12s6p3d1f contracted to 6s3p3d1f pattern {621111/411/111/1}
 Group   4 Type H   : 5s3p1d contracted to 3s3p1d pattern {311/111/1}

Atom   0O    basis set group =>   1
Atom   1O    basis set group =>   1
Atom   2O    basis set group =>   1
Atom   3O    basis set group =>   1
Atom   4N    basis set group =>   2
Atom   5N    basis set group =>   2
Atom   6N    basis set group =>   2
Atom   7N    basis set group =>   2
Atom   8C    basis set group =>   3
Atom   9C    basis set group =>   3
Atom  10C    basis set group =>   3
Atom  11C    basis set group =>   3
Atom  12C    basis set group =>   3
Atom  13C    basis set group =>   3
Atom  14C    basis set group =>   3
Atom  15C    basis set group =>   3
Atom  16C    basis set group =>   3
Atom  17C    basis set group =>   3
Atom  18H    basis set group =>   4
Atom  19H    basis set group =>   4
Atom  20H    basis set group =>   4
Atom  21H    basis set group =>   4
Atom  22H    basis set group =>   4
Atom  23H    basis set group =>   4
Atom  24H    basis set group =>   4
Atom  25H    basis set group =>   4
Atom  26H    basis set group =>   4
Atom  27H    basis set group =>   4
Atom  28H    basis set group =>   4
Atom  29H    basis set group =>   4
---------------------------------
AUXILIARY/J BASIS SET INFORMATION
---------------------------------
There are 4 groups of distinct atoms

 Group   1 Type O   : 12s5p4d2f1g contracted to 6s4p3d1f1g pattern {711111/2111/211/2/1}
 Group   2 Type N   : 12s5p4d2f1g contracted to 6s4p3d1f1g pattern {711111/2111/211/2/1}
 Group   3 Type C   : 12s5p4d2f1g contracted to 6s4p3d1f1g pattern {711111/2111/211/2/1}
 Group   4 Type H   : 5s2p1d contracted to 3s1p1d pattern {311/2/1}

Atom   0O    basis set group =>   1
Atom   1O    basis set group =>   1
Atom   2O    basis set group =>   1
Atom   3O    basis set group =>   1
Atom   4N    basis set group =>   2
Atom   5N    basis set group =>   2
Atom   6N    basis set group =>   2
Atom   7N    basis set group =>   2
Atom   8C    basis set group =>   3
Atom   9C    basis set group =>   3
Atom  10C    basis set group =>   3
Atom  11C    basis set group =>   3
Atom  12C    basis set group =>   3
Atom  13C    basis set group =>   3
Atom  14C    basis set group =>   3
Atom  15C    basis set group =>   3
Atom  16C    basis set group =>   3
Atom  17C    basis set group =>   3
Atom  18H    basis set group =>   4
Atom  19H    basis set group =>   4
Atom  20H    basis set group =>   4
Atom  21H    basis set group =>   4
Atom  22H    basis set group =>   4
Atom  23H    basis set group =>   4
Atom  24H    basis set group =>   4
Atom  25H    basis set group =>   4
Atom  26H    basis set group =>   4
Atom  27H    basis set group =>   4
Atom  28H    basis set group =>   4
Atom  29H    basis set group =>   4
[1738772229.620776] [ohm:2698782:0]        ib_iface.c:1059 UCX  ERROR ibv_create_cq(cqe=256) failed: Connection timed out
[1738772229.621140] [ohm:2698779:0]        ib_iface.c:1059 UCX  ERROR ibv_create_cq(cqe=256) failed: Connection timed out
[1738772229.627899] [ohm:2698781:0]        ib_iface.c:1059 UCX  ERROR ibv_create_cq(cqe=256) failed: Connection timed out
[1738772229.688971] [ohm:2698784:0]        ib_iface.c:1059 UCX  ERROR ibv_create_cq(cqe=256) failed: Connection timed out
[1738772229.693780] [ohm:2698783:0]        ib_iface.c:1059 UCX  ERROR ibv_create_cq(cqe=256) failed: Connection timed out
[1738772229.710010] [ohm:2698791:0]        ib_iface.c:1059 UCX  ERROR ibv_create_cq(cqe=256) failed: Connection timed out
[1738772229.712364] [ohm:2698780:0]        ib_iface.c:1059 UCX  ERROR ibv_create_cq(cqe=256) failed: Connection timed out
[1738772229.712459] [ohm:2698787:0]        ib_iface.c:1059 UCX  ERROR ibv_create_cq(cqe=256) failed: Connection timed out
[1738772229.715671] [ohm:2698810:0]        ib_iface.c:1059 UCX  ERROR ibv_create_cq(cqe=256) failed: Connection timed out
[1738772229.722933] [ohm:2698790:0]        ib_iface.c:1059 UCX  ERROR ibv_create_cq(cqe=256) failed: Connection timed out
[1738772229.738849] [ohm:2698926:0]        ib_iface.c:1059 UCX  ERROR ibv_create_cq(cqe=256) failed: Connection timed out
[1738772229.741214] [ohm:2698823:0]        ib_iface.c:1059 UCX  ERROR ibv_create_cq(cqe=256) failed: Connection timed out
[1738772229.741330] [ohm:2698809:0]        ib_iface.c:1059 UCX  ERROR ibv_create_cq(cqe=256) failed: Connection timed out
[1738772229.752689] [ohm:2698884:0]        ib_iface.c:1059 UCX  ERROR ibv_create_cq(cqe=256) failed: Connection timed out
[1738772229.762672] [ohm:2698878:0]        ib_iface.c:1059 UCX  ERROR ibv_create_cq(cqe=256) failed: Connection timed out
[1738772229.774075] [ohm:2698903:0]        ib_iface.c:1059 UCX  ERROR ibv_create_cq(cqe=256) failed: Connection timed out
[1738772229.776187] [ohm:2698837:0]        ib_iface.c:1059 UCX  ERROR ibv_create_cq(cqe=256) failed: Connection timed out
[1738772229.783343] [ohm:2698870:0]        ib_iface.c:1059 UCX  ERROR ibv_create_cq(cqe=256) failed: Connection timed out
[1738772229.796971] [ohm:2698841:0]        ib_iface.c:1059 UCX  ERROR ibv_create_cq(cqe=256) failed: Connection timed out
[1738772229.797458] [ohm:2698876:0]        ib_iface.c:1059 UCX  ERROR ibv_create_cq(cqe=256) failed: Connection timed out
[1738772229.803304] [ohm:2698872:0]        ib_iface.c:1059 UCX  ERROR ibv_create_cq(cqe=256) failed: Connection timed out
[1738772229.804288] [ohm:2698911:0]        ib_iface.c:1059 UCX  ERROR ibv_create_cq(cqe=256) failed: Connection timed out
[1738772229.807763] [ohm:2698844:0]        ib_iface.c:1059 UCX  ERROR ibv_create_cq(cqe=256) failed: Connection timed out
[1738772229.835319] [ohm:2698792:0]        ib_iface.c:1059 UCX  ERROR ibv_create_cq(cqe=256) failed: Connection timed out
[1738772229.836258] [ohm:2698894:0]        ib_iface.c:1059 UCX  ERROR ibv_create_cq(cqe=256) failed: Connection timed out
[1738772229.853628] [ohm:2698829:0]        ib_iface.c:1059 UCX  ERROR ibv_create_cq(cqe=256) failed: Connection timed out
[1738772229.854915] [ohm:2698785:0]        ib_iface.c:1059 UCX  ERROR ibv_create_cq(cqe=256) failed: Connection timed out
[1738772229.863754] [ohm:2698916:0]        ib_iface.c:1059 UCX  ERROR ibv_create_cq(cqe=256) failed: Connection timed out
[1738772229.866669] [ohm:2698820:0]        ib_iface.c:1059 UCX  ERROR ibv_create_cq(cqe=256) failed: Connection timed out
[1738772229.869533] [ohm:2698789:0]        ib_iface.c:1059 UCX  ERROR ibv_create_cq(cqe=256) failed: Connection timed out
[1738772229.869613] [ohm:2698808:0]        ib_iface.c:1059 UCX  ERROR ibv_create_cq(cqe=256) failed: Connection timed out
[1738772229.870191] [ohm:2698788:0]        ib_iface.c:1059 UCX  ERROR ibv_create_cq(cqe=256) failed: Connection timed out
[1738772229.879933] [ohm:2698921:0]        ib_iface.c:1059 UCX  ERROR ibv_create_cq(cqe=256) failed: Connection timed out
[1738772229.880123] [ohm:2698786:0]        ib_iface.c:1059 UCX  ERROR ibv_create_cq(cqe=256) failed: Connection timed out
[1738772229.880136] [ohm:2698828:0]        ib_iface.c:1059 UCX  ERROR ibv_create_cq(cqe=256) failed: Connection timed out
[1738772229.881365] [ohm:2698914:0]        ib_iface.c:1059 UCX  ERROR ibv_create_cq(cqe=256) failed: Connection timed out
[1738772229.892676] [ohm:2698920:0]        ib_iface.c:1059 UCX  ERROR ibv_create_cq(cqe=256) failed: Connection timed out
[1738772229.893389] [ohm:2698848:0]        ib_iface.c:1059 UCX  ERROR ibv_create_cq(cqe=256) failed: Connection timed out
[1738772229.896476] [ohm:2698840:0]        ib_iface.c:1059 UCX  ERROR ibv_create_cq(cqe=256) failed: Connection timed out
[1738772229.897686] [ohm:2698851:0]        ib_iface.c:1059 UCX  ERROR ibv_create_cq(cqe=256) failed: Connection timed out
[1738772229.904154] [ohm:2698931:0]        ib_iface.c:1059 UCX  ERROR ibv_create_cq(cqe=256) failed: Connection timed out
[1738772229.907543] [ohm:2698842:0]        ib_iface.c:1059 UCX  ERROR ibv_create_cq(cqe=256) failed: Connection timed out
[1738772229.910050] [ohm:2698891:0]        ib_iface.c:1059 UCX  ERROR ibv_create_cq(cqe=256) failed: Connection timed out
[1738772229.911560] [ohm:2698836:0]        ib_iface.c:1059 UCX  ERROR ibv_create_cq(cqe=256) failed: Connection timed out
[1738772229.912720] [ohm:2698888:0]        ib_iface.c:1059 UCX  ERROR ibv_create_cq(cqe=256) failed: Connection timed out
[1738772229.937280] [ohm:2698834:0]        ib_iface.c:1059 UCX  ERROR ibv_create_cq(cqe=256) failed: Connection timed out
[1738772229.945748] [ohm:2698898:0]        ib_iface.c:1059 UCX  ERROR ibv_create_cq(cqe=256) failed: Connection timed out
[1738772229.955421] [ohm:2698835:0]        ib_iface.c:1059 UCX  ERROR ibv_create_cq(cqe=256) failed: Connection timed out
[1738772229.955996] [ohm:2698814:0]        ib_iface.c:1059 UCX  ERROR ibv_create_cq(cqe=256) failed: Connection timed out
[1738772229.961177] [ohm:2698822:0]        ib_iface.c:1059 UCX  ERROR ibv_create_cq(cqe=256) failed: Connection timed out
[1738772229.961391] [ohm:2698907:0]        ib_iface.c:1059 UCX  ERROR ibv_create_cq(cqe=256) failed: Connection timed out
[1738772229.962352] [ohm:2698833:0]        ib_iface.c:1059 UCX  ERROR ibv_create_cq(cqe=256) failed: Connection timed out
[1738772229.963328] [ohm:2698858:0]        ib_iface.c:1059 UCX  ERROR ibv_create_cq(cqe=256) failed: Connection timed out
[1738772229.964448] [ohm:2698807:0]        ib_iface.c:1059 UCX  ERROR ibv_create_cq(cqe=256) failed: Connection timed out
[1738772229.967672] [ohm:2698832:0]        ib_iface.c:1059 UCX  ERROR ibv_create_cq(cqe=256) failed: Connection timed out
[1738772229.967669] [ohm:2698843:0]        ib_iface.c:1059 UCX  ERROR ibv_create_cq(cqe=256) failed: Connection timed out
[1738772229.970094] [ohm:2698900:0]        ib_iface.c:1059 UCX  ERROR ibv_create_cq(cqe=256) failed: Connection timed out
[1738772229.970091] [ohm:2698839:0]        ib_iface.c:1059 UCX  ERROR ibv_create_cq(cqe=256) failed: Connection timed out
[1738772229.973766] [ohm:2698856:0]        ib_iface.c:1059 UCX  ERROR ibv_create_cq(cqe=256) failed: Connection timed out
[1738772229.974189] [ohm:2698882:0]        ib_iface.c:1059 UCX  ERROR ibv_create_cq(cqe=256) failed: Connection timed out
[1738772229.974287] [ohm:2698866:0]        ib_iface.c:1059 UCX  ERROR ibv_create_cq(cqe=256) failed: Connection timed out
[1738772229.975943] [ohm:2698830:0]        ib_iface.c:1059 UCX  ERROR ibv_create_cq(cqe=256) failed: Connection timed out
[1738772229.976773] [ohm:2698863:0]        ib_iface.c:1059 UCX  ERROR ibv_create_cq(cqe=256) failed: Connection timed out
[1738772229.981742] [ohm:2698838:0]        ib_iface.c:1059 UCX  ERROR ibv_create_cq(cqe=256) failed: Connection timed out


           ************************************************************
           *        Program running with 64 parallel MPI-processes    *
           *              working on a common directory               *
           ************************************************************
------------------------------------------------------------------------------
                             ORCA STARTUP CALCULATIONS
                           -- RI-GTO INTEGRALS CHOSEN --
------------------------------------------------------------------------------
------------------------------------------------------------------------------
                   ___                                                        
                  /   \      - P O W E R E D   B Y -                         
                 /     \                                                     
                 |  |  |   _    _      __       _____    __    __             
                 |  |  |  | |  | |    /  \     |  _  \  |  |  /  |          
                  \  \/   | |  | |   /    \    | | | |  |  | /  /          
                 / \  \   | |__| |  /  /\  \   | |_| |  |  |/  /          
                |  |  |   |  __  | /  /__\  \  |    /   |      \           
                |  |  |   | |  | | |   __   |  |    \   |  |\   \          
                \     /   | |  | | |  |  |  |  | |\  \  |  | \   \       
                 \___/    |_|  |_| |__|  |__|  |_| \__\ |__|  \__/        
                                                                              
                      - O R C A' S   B I G   F R I E N D -                    
                                      &                                       
                       - I N T E G R A L  F E E D E R -                       
                                                                              
 v1 FN, 2020, v2 2021, v3 2022-2024                                           
------------------------------------------------------------------------------


----------------------
SHARK INTEGRAL PACKAGE
----------------------

Number of atoms                             ...     30
Number of basis functions                   ...    882
Number of shells                            ...    322
Maximum angular momentum                    ...      3
Integral batch strategy                     ... SHARK/LIBINT Hybrid
RI-J (if used) integral strategy            ... SPLIT-RIJ (Revised 2003 algorithm where possible)
Printlevel                                  ...      1
Contraction scheme used                     ... SEGMENTED contraction
Prescreening option                         ... SCHWARTZ
   Thresh                                   ... 2.500e-11
   Tcut                                     ... 2.500e-12
   Tpresel                                  ... 2.500e-12 
Coulomb Range Separation                    ... NOT USED
Exchange Range Separation                   ... Long Range
   Mu parameter                             ... 3.000e-01
   Scaling (regular/separated)              ... 1.500e-01 8.500e-01
Multipole approximations                    ... NOT USED
Finite Nucleus Model                        ... NOT USED
CABS basis                                  ... NOT available
Auxiliary Coulomb fitting basis             ... AVAILABLE
   # of basis functions in Aux-J            ...   1014
   # of shells in Aux-J                     ...    330
   Maximum angular momentum in Aux-J        ...      4
Auxiliary J/K fitting basis                 ... NOT available
Auxiliary Correlation fitting basis         ... NOT available
Auxiliary 'external' fitting basis          ... NOT available

Checking pre-screening integrals            ... done (  0.0 sec) Dimension = 322
Check shell pair data                       ... done (  0.0 sec)
Shell pair information
Shell pair cut-off parameter TPreSel        ...   2.5e-12
Total number of shell pairs                 ...     52003
Shell pairs after pre-screening             ...     42325
Total number of primitive shell pairs       ...    129718
Primitive shell pairs kept                  ...     78102
          la=0 lb=0:   8262 shell pairs
          la=1 lb=0:  11264 shell pairs
          la=1 lb=1:   3904 shell pairs
          la=2 lb=0:   7614 shell pairs
          la=2 lb=1:   5254 shell pairs
          la=2 lb=2:   1804 shell pairs
          la=3 lb=0:   1882 shell pairs
          la=3 lb=1:   1336 shell pairs
          la=3 lb=2:    889 shell pairs
          la=3 lb=3:    116 shell pairs

Calculating one electron integrals          ... done (  0.2 sec)
Calculating RI/J V-Matrix + Cholesky decomp.... done (  0.0 sec)
Calculating Nuclear repulsion               ... done (  0.0 sec) ENN=   1325.520201214579 Eh

Diagonalization of the overlap matrix:
Smallest eigenvalue                        ... 1.221e-06
Time for diagonalization                   ...    0.131 sec
Threshold for overlap eigenvalues          ... 1.000e-07
Number of eigenvalues below threshold      ... 0
Time for construction of square roots      ...    0.147 sec
Total time needed                          ...    0.293 sec

-------------------
DFT GRID GENERATION
-------------------

General Integration Accuracy     IntAcc      ... 4.388
Radial Grid Type                 RadialGrid  ... OptM3 with GC (2021)
Angular Grid (max. ang.)         AngularGrid ... 4 (Lebedev-302)
Angular grid pruning method      GridPruning ... 4 (adaptive)
Weight generation scheme         WeightScheme... mBecke (2022)
Basis function cutoff            BFCut       ... 1.0000e-11
Integration weight cutoff        WCut        ... 1.0000e-14
Partially contracted basis set               ... off
Rotationally invariant grid construction     ... off
Angular grids for H and He will be reduced by one unit
Diffuse basis detected: some atoms will have their outermost
                        angular grid increased by 1.

Total number of grid points                  ...   153447
Total number of batches                      ...     2412
Average number of points per batch           ...       63
Average number of grid points per atom       ...     5115

--------------------
COSX GRID GENERATION
--------------------

GRIDX 1
-------
General Integration Accuracy     IntAcc      ... 3.816
Radial Grid Type                 RadialGrid  ... OptM3 with GC (2021)
Angular Grid (max. ang.)         AngularGrid ... 1 (Lebedev-50)
Angular grid pruning method      GridPruning ... 4 (adaptive)
Weight generation scheme         WeightScheme... mBecke (2022)
Basis function cutoff            BFCut       ... 1.0000e-11
Integration weight cutoff        WCut        ... 1.0000e-14
Partially contracted basis set               ... on
Rotationally invariant grid construction     ... off
Angular grids for H and He will be reduced by one unit
Diffuse basis detected: some atoms will have their outermost
                        angular grid increased by 1.

Total number of grid points                  ...    19231
Total number of batches                      ...      167
Average number of points per batch           ...      115
Average number of grid points per atom       ...      641
UseSFitting                                  ... on

GRIDX 2
-------
General Integration Accuracy     IntAcc      ... 4.020
Radial Grid Type                 RadialGrid  ... OptM3 with GC (2021)
Angular Grid (max. ang.)         AngularGrid ... 2 (Lebedev-110)
Angular grid pruning method      GridPruning ... 4 (adaptive)
Weight generation scheme         WeightScheme... mBecke (2022)
Basis function cutoff            BFCut       ... 1.0000e-11
Integration weight cutoff        WCut        ... 1.0000e-14
Partially contracted basis set               ... on
Rotationally invariant grid construction     ... off
Angular grids for H and He will be reduced by one unit
Diffuse basis detected: some atoms will have their outermost
                        angular grid increased by 1.

Total number of grid points                  ...    46704
Total number of batches                      ...      381
Average number of points per batch           ...      122
Average number of grid points per atom       ...     1557
UseSFitting                                  ... on

GRIDX 3
-------
General Integration Accuracy     IntAcc      ... 4.338
Radial Grid Type                 RadialGrid  ... OptM3 with GC (2021)
Angular Grid (max. ang.)         AngularGrid ... 3 (Lebedev-194)
Angular grid pruning method      GridPruning ... 4 (adaptive)
Weight generation scheme         WeightScheme... mBecke (2022)
Basis function cutoff            BFCut       ... 1.0000e-11
Integration weight cutoff        WCut        ... 1.0000e-14
Partially contracted basis set               ... on
Rotationally invariant grid construction     ... off
Angular grids for H and He will be reduced by one unit
Diffuse basis detected: some atoms will have their outermost
                        angular grid increased by 1.

Total number of grid points                  ...   102833
Total number of batches                      ...      821
Average number of points per batch           ...      125
Average number of grid points per atom       ...     3428
UseSFitting                                  ... on
Initializing property integral containers    ... done (  0.0 sec)

SHARK setup successfully completed in   5.1 seconds

Maximum memory used throughout the entire STARTUP-calculation: 76.7 MB
[1738772237.157556] [ohm:2699113:0]        ib_iface.c:1059 UCX  ERROR ibv_create_cq(cqe=256) failed: Connection timed out
[1738772237.178457] [ohm:2699120:0]        ib_iface.c:1059 UCX  ERROR ibv_create_cq(cqe=256) failed: Connection timed out
[1738772237.180548] [ohm:2699121:0]        ib_iface.c:1059 UCX  ERROR ibv_create_cq(cqe=256) failed: Connection timed out
[1738772237.190543] [ohm:2699114:0]        ib_iface.c:1059 UCX  ERROR ibv_create_cq(cqe=256) failed: Connection timed out
[1738772237.194363] [ohm:2699116:0]        ib_iface.c:1059 UCX  ERROR ibv_create_cq(cqe=256) failed: Connection timed out
[1738772237.195730] [ohm:2699119:0]        ib_iface.c:1059 UCX  ERROR ibv_create_cq(cqe=256) failed: Connection timed out
[1738772237.207807] [ohm:2699112:0]        ib_iface.c:1059 UCX  ERROR ibv_create_cq(cqe=256) failed: Connection timed out
[1738772237.210362] [ohm:2699117:0]        ib_iface.c:1059 UCX  ERROR ibv_create_cq(cqe=256) failed: Connection timed out
[1738772237.247741] [ohm:2699136:0]        ib_iface.c:1059 UCX  ERROR ibv_create_cq(cqe=256) failed: Connection timed out
[1738772237.265599] [ohm:2699165:0]        ib_iface.c:1059 UCX  ERROR ibv_create_cq(cqe=256) failed: Connection timed out
[1738772237.268110] [ohm:2699115:0]        ib_iface.c:1059 UCX  ERROR ibv_create_cq(cqe=256) failed: Connection timed out
[1738772237.283330] [ohm:2699134:0]        ib_iface.c:1059 UCX  ERROR ibv_create_cq(cqe=256) failed: Connection timed out
[1738772237.286848] [ohm:2699143:0]        ib_iface.c:1059 UCX  ERROR ibv_create_cq(cqe=256) failed: Connection timed out
[1738772237.293549] [ohm:2699135:0]        ib_iface.c:1059 UCX  ERROR ibv_create_cq(cqe=256) failed: Connection timed out
[1738772237.300898] [ohm:2699140:0]        ib_iface.c:1059 UCX  ERROR ibv_create_cq(cqe=256) failed: Connection timed out
[1738772237.301426] [ohm:2699239:0]        ib_iface.c:1059 UCX  ERROR ibv_create_cq(cqe=256) failed: Connection timed out
[1738772237.303573] [ohm:2699118:0]        ib_iface.c:1059 UCX  ERROR ibv_create_cq(cqe=256) failed: Connection timed out
[1738772237.305365] [ohm:2699137:0]        ib_iface.c:1059 UCX  ERROR ibv_create_cq(cqe=256) failed: Connection timed out
[1738772237.305408] [ohm:2699139:0]        ib_iface.c:1059 UCX  ERROR ibv_create_cq(cqe=256) failed: Connection timed out
[1738772237.310721] [ohm:2699255:0]        ib_iface.c:1059 UCX  ERROR ibv_create_cq(cqe=256) failed: Connection timed out
[1738772237.320446] [ohm:2699138:0]        ib_iface.c:1059 UCX  ERROR ibv_create_cq(cqe=256) failed: Connection timed out
[1738772237.320882] [ohm:2699210:0]        ib_iface.c:1059 UCX  ERROR ibv_create_cq(cqe=256) failed: Connection timed out
[1738772237.321986] [ohm:2699251:0]        ib_iface.c:1059 UCX  ERROR ibv_create_cq(cqe=256) failed: Connection timed out
[1738772237.335136] [ohm:2699148:0]        ib_iface.c:1059 UCX  ERROR ibv_create_cq(cqe=256) failed: Connection timed out
[1738772237.335486] [ohm:2699215:0]        ib_iface.c:1059 UCX  ERROR ibv_create_cq(cqe=256) failed: Connection timed out
[1738772237.340340] [ohm:2699209:0]        ib_iface.c:1059 UCX  ERROR ibv_create_cq(cqe=256) failed: Connection timed out
[1738772237.347093] [ohm:2699219:0]        ib_iface.c:1059 UCX  ERROR ibv_create_cq(cqe=256) failed: Connection timed out
[1738772237.358974] [ohm:2699196:0]        ib_iface.c:1059 UCX  ERROR ibv_create_cq(cqe=256) failed: Connection timed out
[1738772237.363214] [ohm:2699249:0]        ib_iface.c:1059 UCX  ERROR ibv_create_cq(cqe=256) failed: Connection timed out
[1738772237.363427] [ohm:2699170:0]        ib_iface.c:1059 UCX  ERROR ibv_create_cq(cqe=256) failed: Connection timed out
[1738772237.367996] [ohm:2699158:0]        ib_iface.c:1059 UCX  ERROR ibv_create_cq(cqe=256) failed: Connection timed out
[1738772237.374436] [ohm:2699163:0]        ib_iface.c:1059 UCX  ERROR ibv_create_cq(cqe=256) failed: Connection timed out
[1738772237.380696] [ohm:2699201:0]        ib_iface.c:1059 UCX  ERROR ibv_create_cq(cqe=256) failed: Connection timed out
[1738772237.390958] [ohm:2699225:0]        ib_iface.c:1059 UCX  ERROR ibv_create_cq(cqe=256) failed: Connection timed out
[1738772237.414816] [ohm:2699242:0]        ib_iface.c:1059 UCX  ERROR ibv_create_cq(cqe=256) failed: Connection timed out
[1738772237.418311] [ohm:2699203:0]        ib_iface.c:1059 UCX  ERROR ibv_create_cq(cqe=256) failed: Connection timed out
[1738772237.418299] [ohm:2699237:0]        ib_iface.c:1059 UCX  ERROR ibv_create_cq(cqe=256) failed: Connection timed out
[1738772237.418589] [ohm:2699164:0]        ib_iface.c:1059 UCX  ERROR ibv_create_cq(cqe=256) failed: Connection timed out
[1738772237.427594] [ohm:2699159:0]        ib_iface.c:1059 UCX  ERROR ibv_create_cq(cqe=256) failed: Connection timed out
[1738772237.430124] [ohm:2699160:0]        ib_iface.c:1059 UCX  ERROR ibv_create_cq(cqe=256) failed: Connection timed out
[1738772237.445027] [ohm:2699232:0]        ib_iface.c:1059 UCX  ERROR ibv_create_cq(cqe=256) failed: Connection timed out
[1738772237.445601] [ohm:2699178:0]        ib_iface.c:1059 UCX  ERROR ibv_create_cq(cqe=256) failed: Connection timed out
[1738772237.447596] [ohm:2699168:0]        ib_iface.c:1059 UCX  ERROR ibv_create_cq(cqe=256) failed: Connection timed out
[1738772237.450192] [ohm:2699162:0]        ib_iface.c:1059 UCX  ERROR ibv_create_cq(cqe=256) failed: Connection timed out
[1738772237.453595] [ohm:2699154:0]        ib_iface.c:1059 UCX  ERROR ibv_create_cq(cqe=256) failed: Connection timed out
[1738772237.456183] [ohm:2699223:0]        ib_iface.c:1059 UCX  ERROR ibv_create_cq(cqe=256) failed: Connection timed out
[1738772237.456525] [ohm:2699192:0]        ib_iface.c:1059 UCX  ERROR ibv_create_cq(cqe=256) failed: Connection timed out
[1738772237.464805] [ohm:2699188:0]        ib_iface.c:1059 UCX  ERROR ibv_create_cq(cqe=256) failed: Connection timed out
[1738772237.465760] [ohm:2699167:0]        ib_iface.c:1059 UCX  ERROR ibv_create_cq(cqe=256) failed: Connection timed out
[1738772237.471893] [ohm:2699231:0]        ib_iface.c:1059 UCX  ERROR ibv_create_cq(cqe=256) failed: Connection timed out
[1738772237.474676] [ohm:2699175:0]        ib_iface.c:1059 UCX  ERROR ibv_create_cq(cqe=256) failed: Connection timed out
[1738772237.480100] [ohm:2699259:0]        ib_iface.c:1059 UCX  ERROR ibv_create_cq(cqe=256) failed: Connection timed out
[1738772237.484845] [ohm:2699156:0]        ib_iface.c:1059 UCX  ERROR ibv_create_cq(cqe=256) failed: Connection timed out
[1738772237.485444] [ohm:2699161:0]        ib_iface.c:1059 UCX  ERROR ibv_create_cq(cqe=256) failed: Connection timed out
[1738772237.487151] [ohm:2699153:0]        ib_iface.c:1059 UCX  ERROR ibv_create_cq(cqe=256) failed: Connection timed out
[1738772237.487790] [ohm:2699166:0]        ib_iface.c:1059 UCX  ERROR ibv_create_cq(cqe=256) failed: Connection timed out
[1738772237.488493] [ohm:2699157:0]        ib_iface.c:1059 UCX  ERROR ibv_create_cq(cqe=256) failed: Connection timed out
[1738772237.489409] [ohm:2699244:0]        ib_iface.c:1059 UCX  ERROR ibv_create_cq(cqe=256) failed: Connection timed out
[1738772237.489789] [ohm:2699173:0]        ib_iface.c:1059 UCX  ERROR ibv_create_cq(cqe=256) failed: Connection timed out
[1738772237.493184] [ohm:2699146:0]        ib_iface.c:1059 UCX  ERROR ibv_create_cq(cqe=256) failed: Connection timed out
[1738772237.493346] [ohm:2699155:0]        ib_iface.c:1059 UCX  ERROR ibv_create_cq(cqe=256) failed: Connection timed out
[1738772237.494609] [ohm:2699182:0]        ib_iface.c:1059 UCX  ERROR ibv_create_cq(cqe=256) failed: Connection timed out
[1738772237.495152] [ohm:2699185:0]        ib_iface.c:1059 UCX  ERROR ibv_create_cq(cqe=256) failed: Connection timed out
[1738772237.495590] [ohm:2699151:0]        ib_iface.c:1059 UCX  ERROR ibv_create_cq(cqe=256) failed: Connection timed out


           ************************************************************
           *        Program running with 64 parallel MPI-processes    *
           *              working on a common directory               *
           ************************************************************
-------------------------------------------------------------------------------
                                 ORCA GUESS
                   Start orbitals & Density for SCF / CASSCF
-------------------------------------------------------------------------------

------------
SCF SETTINGS
------------
Hamiltonian:
 Density Functional     Method          .... DFT(GTOs)
  Functional kind                       .... Exchange-Correlation
  Functional name                       .... wB97M-V exchange-correlation functional
  Functional family                     .... Hybrid MGGA
  Functional refs                              
    [ 0] N. Mardirossian and M. Head-Gordon.,  J. Chem. Phys. 144, 214110 (2016), doi: 10.1063/1.4952647
  Fraction of HF Exchange (short range) .... 0.1500
  Fraction of HF Exchange (long range)  .... 1.0000
  Range separation parameter mu         .... 0.3000
  Functional external parameters        .... 17
    Parameter  0 _cx00      =  8.500000e-01 : u^00 coefficient for exchange
    Parameter  1 _cx01      =  1.007000e+00 : u^01 coefficient for exchange
    Parameter  2 _cx10      =  2.590000e-01 : u^10 coefficient for exchange
    Parameter  3 _css00     =  4.430000e-01 : u^00 coefficient for same-spin correlation
    Parameter  4 _css04     = -1.437000e+00 : u^04 coefficient for same-spin correlation
    Parameter  5 _css10     = -4.535000e+00 : u^10 coefficient for same-spin correlation
    Parameter  6 _css20     = -3.390000e+00 : u^20 coefficient for same-spin correlation
    Parameter  7 _css43     =  4.278000e+00 : u^43 coefficient for same-spin correlation
    Parameter  8 _cos00     =  1.000000e+00 : u^00 coefficient for opposite-spin correlation
    Parameter  9 _cos10     =  1.358000e+00 : u^10 coefficient for opposite-spin correlation
    Parameter 10 _cos20     =  2.924000e+00 : u^20 coefficient for opposite-spin correlation
    Parameter 11 _cos21     = -8.812000e+00 : u^21 coefficient for opposite-spin correlation
    Parameter 12 _cos60     = -1.390000e+00 : u^60 coefficient for opposite-spin correlation
    Parameter 13 _cos61     =  9.142000e+00 : u^61 coefficient for opposite-spin correlation
    Parameter 14 _alpha     =  1.000000e+00 : fraction of HF exchange
    Parameter 15 _beta      = -8.500000e-01 : fraction of short-range exchange
    Parameter 16 _omega     =  3.000000e-01 : range-separation constant
 Long-range corrected/Screened/Range-Separated Hybrid DFT is turned on
   Amount of maximum screened exact exchange              ....  0.850000
   Range separation parameter mu (erf(mu*r12)/r12)        ....  0.300000
 RI-approximation to the Coulomb term is turned on
   Number of AuxJ basis functions       .... 1014
   RIJ-COSX (HFX calculated with COS-X)).... on


General Settings:
 Integral files         IntName         .... orca
 Hartree-Fock type      HFTyp           .... RHF
 Total Charge           Charge          ....    0
 Multiplicity           Mult            ....    1
 Number of Electrons    NEL             ....  132
 Basis Dimension        Dim             ....  882
 Nuclear Repulsion      ENuc            ....   1325.5202012146 Eh

Convergence Acceleration:
 AO-DIIS                CNVDIIS         .... on
   Start iteration      DIISMaxIt       ....    12
   Startup error        DIISStart       ....  0.200000
   # of expansion vecs  DIISMaxEq       ....     5
   Bias factor          DIISBfac        ....   1.050
   Max. coefficient     DIISMaxC        ....  10.000
 MO-DIIS                CNVKDIIS        .... off
 Trust-Rad. Augm. Hess. CNVTRAH         .... auto
   Auto Start mean grad. ratio tolernc. ....  1.125000
   Auto Start start iteration           ....    50
   Auto Start num. interpolation iter.  ....    10
   Max. Number of Micro iterations      ....    24
   Max. Number of Macro iterations      .... Maxiter - #DIIS iter
   Number of Davidson start vectors     ....     2
   Converg. threshold    (grad. norm)   ....   1.000e-05
   Grad. Scal. Fac. for Micro threshold ....   0.100
   Minimum threshold for Micro iter.    ....   1.000e-02
   NR start threshold (gradient norm)   ....   1.000e-04
   Initial trust radius                 ....   0.400
   Minimum AH scaling param. (alpha)    ....   1.000
   Maximum AH scaling param. (alpha)    .... 1000.000
   Quad. conv. algorithm                .... NR
   White noise on init. David. guess    .... on
   Maximum white noise                  ....   0.010
   Pseudo random numbers                .... off
   Inactive MOs                         .... canonical
   Orbital update algorithm             .... Taylor
   Preconditioner                       .... Diag
   Full preconditioner red. dimension   ....   250
 SOSCF                  CNVSOSCF        .... on
   Start iteration      SOSCFMaxIt      ....   150
   Startup grad/error   SOSCFStart      ....  0.003300
   Hessian update       SOSCFHessUp     .... L-BFGS
 Level Shifting         CNVShift        .... on
   Level shift para.    LevelShift      ....    0.2500
   Turn off err/grad.   ShiftErr        ....    0.0010
 Zerner damping         CNVZerner       .... off
 Static damping         CNVDamp         .... on
   Fraction old density DampFac         ....    0.7000
   Max. Damping (<1)    DampMax         ....    0.9800
   Min. Damping (>=0)   DampMin         ....    0.0000
   Turn off err/grad.   DampErr         ....    0.1000

SCF Procedure:
 Maximum # iterations   MaxIter         ....   125
 SCF integral mode      SCFMode         .... Direct
   Integral package                     .... SHARK and LIBINT hybrid scheme
 Reset frequency        DirectResetFreq ....    20
 Integral Threshold     Thresh          ....  2.500e-11 Eh
 Primitive CutOff       TCut            ....  2.500e-12 Eh

Convergence Tolerance:
 Convergence Check Mode ConvCheckMode   .... Total+1el-Energy
 Convergence forced     ConvForced      .... 0
 Energy Change          TolE            ....  1.000e-08 Eh
 1-El. energy change                    ....  1.000e-05 Eh
 Orbital Gradient       TolG            ....  1.000e-05
 Orbital Rotation angle TolX            ....  1.000e-05
 DIIS Error             TolErr          ....  5.000e-07

------------------------------
INITIAL GUESS: MODEL POTENTIAL
------------------------------
Loading Hartree-Fock densities                     ... done
Calculating cut-offs                               ... done
Initializing the effective Hamiltonian             ... done
Setting up the integral package (SHARK)            ... done
Starting the Coulomb interaction                   ... done (   0.1 sec)
Making the grid                                    ... done (   0.3 sec)
Mapping shells                                     ... done
Starting the XC term evaluation                    ... done (   0.1 sec)
  promolecular density results
     # of electrons  =    131.991551525
     EX              =   -113.288442331
     EC              =     -4.426904192
     EX+EC           =   -117.715346524
Transforming the Hamiltonian                       ... done (   0.1 sec)
Diagonalizing the Hamiltonian                      ... done (   0.1 sec)
Back transforming the eigenvectors                 ... done (   0.1 sec)
Now organizing SCF variables                       ... done
                      ------------------
                      INITIAL GUESS DONE (   1.0 sec)
                      ------------------
             **** ENERGY FILE WAS UPDATED (orca.en.tmp) ****
Finished Guess after   3.4 sec
Maximum memory used throughout the entire GUESS-calculation: 68.8 MB
[1738772241.345890] [ohm:2699442:0]        ib_iface.c:1059 UCX  ERROR ibv_create_cq(cqe=256) failed: Connection timed out
[1738772241.347628] [ohm:2699441:0]        ib_iface.c:1059 UCX  ERROR ibv_create_cq(cqe=256) failed: Connection timed out
[1738772241.356505] [ohm:2699447:0]        ib_iface.c:1059 UCX  ERROR ibv_create_cq(cqe=256) failed: Connection timed out
[1738772241.361856] [ohm:2699440:0]        ib_iface.c:1059 UCX  ERROR ibv_create_cq(cqe=256) failed: Connection timed out
[1738772241.364182] [ohm:2699443:0]        ib_iface.c:1059 UCX  ERROR ibv_create_cq(cqe=256) failed: Connection timed out
[1738772241.375221] [ohm:2699446:0]        ib_iface.c:1059 UCX  ERROR ibv_create_cq(cqe=256) failed: Connection timed out
[1738772241.385520] [ohm:2699486:0]        ib_iface.c:1059 UCX  ERROR ibv_create_cq(cqe=256) failed: Connection timed out
[1738772241.388830] [ohm:2699483:0]        ib_iface.c:1059 UCX  ERROR ibv_create_cq(cqe=256) failed: Connection timed out
[1738772241.394844] [ohm:2699577:0]        ib_iface.c:1059 UCX  ERROR ibv_create_cq(cqe=256) failed: Connection timed out
[1738772241.397673] [ohm:2699476:0]        ib_iface.c:1059 UCX  ERROR ibv_create_cq(cqe=256) failed: Connection timed out
[1738772241.402449] [ohm:2699523:0]        ib_iface.c:1059 UCX  ERROR ibv_create_cq(cqe=256) failed: Connection timed out
[1738772241.404546] [ohm:2699451:0]        ib_iface.c:1059 UCX  ERROR ibv_create_cq(cqe=256) failed: Connection timed out
[1738772241.412548] [ohm:2699445:0]        ib_iface.c:1059 UCX  ERROR ibv_create_cq(cqe=256) failed: Connection timed out
[1738772241.413619] [ohm:2699450:0]        ib_iface.c:1059 UCX  ERROR ibv_create_cq(cqe=256) failed: Connection timed out
[1738772241.414609] [ohm:2699494:0]        ib_iface.c:1059 UCX  ERROR ibv_create_cq(cqe=256) failed: Connection timed out
[1738772241.418223] [ohm:2699457:0]        ib_iface.c:1059 UCX  ERROR ibv_create_cq(cqe=256) failed: Connection timed out
[1738772241.425520] [ohm:2699539:0]        ib_iface.c:1059 UCX  ERROR ibv_create_cq(cqe=256) failed: Connection timed out
[1738772241.458663] [ohm:2699480:0]        ib_iface.c:1059 UCX  ERROR ibv_create_cq(cqe=256) failed: Connection timed out
[1738772241.462298] [ohm:2699484:0]        ib_iface.c:1059 UCX  ERROR ibv_create_cq(cqe=256) failed: Connection timed out
[1738772241.464150] [ohm:2699444:0]        ib_iface.c:1059 UCX  ERROR ibv_create_cq(cqe=256) failed: Connection timed out
[1738772241.478605] [ohm:2699585:0]        ib_iface.c:1059 UCX  ERROR ibv_create_cq(cqe=256) failed: Connection timed out
[1738772241.488725] [ohm:2699470:0]        ib_iface.c:1059 UCX  ERROR ibv_create_cq(cqe=256) failed: Connection timed out
[1738772241.503976] [ohm:2699474:0]        ib_iface.c:1059 UCX  ERROR ibv_create_cq(cqe=256) failed: Connection timed out
[1738772241.504911] [ohm:2699481:0]        ib_iface.c:1059 UCX  ERROR ibv_create_cq(cqe=256) failed: Connection timed out
[1738772241.506861] [ohm:2699581:0]        ib_iface.c:1059 UCX  ERROR ibv_create_cq(cqe=256) failed: Connection timed out
[1738772241.506923] [ohm:2699501:0]        ib_iface.c:1059 UCX  ERROR ibv_create_cq(cqe=256) failed: Connection timed out
[1738772241.509684] [ohm:2699471:0]        ib_iface.c:1059 UCX  ERROR ibv_create_cq(cqe=256) failed: Connection timed out
[1738772241.514473] [ohm:2699466:0]        ib_iface.c:1059 UCX  ERROR ibv_create_cq(cqe=256) failed: Connection timed out
[1738772241.515948] [ohm:2699473:0]        ib_iface.c:1059 UCX  ERROR ibv_create_cq(cqe=256) failed: Connection timed out
[1738772241.519775] [ohm:2699475:0]        ib_iface.c:1059 UCX  ERROR ibv_create_cq(cqe=256) failed: Connection timed out
[1738772241.529779] [ohm:2699452:0]        ib_iface.c:1059 UCX  ERROR ibv_create_cq(cqe=256) failed: Connection timed out
[1738772241.533349] [ohm:2699478:0]        ib_iface.c:1059 UCX  ERROR ibv_create_cq(cqe=256) failed: Connection timed out
[1738772241.539872] [ohm:2699449:0]        ib_iface.c:1059 UCX  ERROR ibv_create_cq(cqe=256) failed: Connection timed out
[1738772241.544393] [ohm:2699472:0]        ib_iface.c:1059 UCX  ERROR ibv_create_cq(cqe=256) failed: Connection timed out
[1738772241.556952] [ohm:2699448:0]        ib_iface.c:1059 UCX  ERROR ibv_create_cq(cqe=256) failed: Connection timed out
[1738772241.557566] [ohm:2699479:0]        ib_iface.c:1059 UCX  ERROR ibv_create_cq(cqe=256) failed: Connection timed out
[1738772241.564796] [ohm:2699477:0]        ib_iface.c:1059 UCX  ERROR ibv_create_cq(cqe=256) failed: Connection timed out
[1738772241.566898] [ohm:2699537:0]        ib_iface.c:1059 UCX  ERROR ibv_create_cq(cqe=256) failed: Connection timed out
[1738772241.566958] [ohm:2699482:0]        ib_iface.c:1059 UCX  ERROR ibv_create_cq(cqe=256) failed: Connection timed out
[1738772241.566954] [ohm:2699556:0]        ib_iface.c:1059 UCX  ERROR ibv_create_cq(cqe=256) failed: Connection timed out
[1738772241.570737] [ohm:2699505:0]        ib_iface.c:1059 UCX  ERROR ibv_create_cq(cqe=256) failed: Connection timed out
[1738772241.572540] [ohm:2699517:0]        ib_iface.c:1059 UCX  ERROR ibv_create_cq(cqe=256) failed: Connection timed out
[1738772241.575488] [ohm:2699589:0]        ib_iface.c:1059 UCX  ERROR ibv_create_cq(cqe=256) failed: Connection timed out
[1738772241.589461] [ohm:2699459:0]        ib_iface.c:1059 UCX  ERROR ibv_create_cq(cqe=256) failed: Connection timed out
[1738772241.592842] [ohm:2699572:0]        ib_iface.c:1059 UCX  ERROR ibv_create_cq(cqe=256) failed: Connection timed out
[1738772241.596627] [ohm:2699576:0]        ib_iface.c:1059 UCX  ERROR ibv_create_cq(cqe=256) failed: Connection timed out
[1738772241.599212] [ohm:2699509:0]        ib_iface.c:1059 UCX  ERROR ibv_create_cq(cqe=256) failed: Connection timed out
[1738772241.601217] [ohm:2699526:0]        ib_iface.c:1059 UCX  ERROR ibv_create_cq(cqe=256) failed: Connection timed out
[1738772241.604296] [ohm:2699566:0]        ib_iface.c:1059 UCX  ERROR ibv_create_cq(cqe=256) failed: Connection timed out
[1738772241.612390] [ohm:2699545:0]        ib_iface.c:1059 UCX  ERROR ibv_create_cq(cqe=256) failed: Connection timed out
[1738772241.613168] [ohm:2699467:0]        ib_iface.c:1059 UCX  ERROR ibv_create_cq(cqe=256) failed: Connection timed out
[1738772241.615994] [ohm:2699549:0]        ib_iface.c:1059 UCX  ERROR ibv_create_cq(cqe=256) failed: Connection timed out
[1738772241.622332] [ohm:2699511:0]        ib_iface.c:1059 UCX  ERROR ibv_create_cq(cqe=256) failed: Connection timed out
[1738772241.627507] [ohm:2699488:0]        ib_iface.c:1059 UCX  ERROR ibv_create_cq(cqe=256) failed: Connection timed out
[1738772241.629908] [ohm:2699530:0]        ib_iface.c:1059 UCX  ERROR ibv_create_cq(cqe=256) failed: Connection timed out
[1738772241.629908] [ohm:2699559:0]        ib_iface.c:1059 UCX  ERROR ibv_create_cq(cqe=256) failed: Connection timed out
[1738772241.630814] [ohm:2699462:0]        ib_iface.c:1059 UCX  ERROR ibv_create_cq(cqe=256) failed: Connection timed out
[1738772241.632366] [ohm:2699533:0]        ib_iface.c:1059 UCX  ERROR ibv_create_cq(cqe=256) failed: Connection timed out
[1738772241.633035] [ohm:2699570:0]        ib_iface.c:1059 UCX  ERROR ibv_create_cq(cqe=256) failed: Connection timed out
[1738772241.639855] [ohm:2699565:0]        ib_iface.c:1059 UCX  ERROR ibv_create_cq(cqe=256) failed: Connection timed out
[1738772241.640002] [ohm:2699562:0]        ib_iface.c:1059 UCX  ERROR ibv_create_cq(cqe=256) failed: Connection timed out
[1738772241.640868] [ohm:2699532:0]        ib_iface.c:1059 UCX  ERROR ibv_create_cq(cqe=256) failed: Connection timed out
[1738772241.641196] [ohm:2699514:0]        ib_iface.c:1059 UCX  ERROR ibv_create_cq(cqe=256) failed: Connection timed out
[1738772241.641575] [ohm:2699553:0]        ib_iface.c:1059 UCX  ERROR ibv_create_cq(cqe=256) failed: Connection timed out


           ************************************************************
           *        Program running with 64 parallel MPI-processes    *
           *              working on a common directory               *
           ************************************************************

-------------------------------------------------------------------------------------------
                                      ORCA LEAN-SCF
                              memory conserving SCF solver
[...]
[1738776373.997661] [ohm:2764649:0]        ib_iface.c:1059 UCX  ERROR ibv_create_cq(cqe=256) failed: Connection timed out
[1738776374.000930] [ohm:2764721:0]        ib_iface.c:1059 UCX  ERROR ibv_create_cq(cqe=256) failed: Connection timed out
[1738776374.002564] [ohm:2764743:0]        ib_iface.c:1059 UCX  ERROR ibv_create_cq(cqe=256) failed: Connection timed out
[1738776374.022453] [ohm:2764723:0]        ib_iface.c:1059 UCX  ERROR ibv_create_cq(cqe=256) failed: Connection timed out
[1738776374.025420] [ohm:2764697:0]        ib_iface.c:1059 UCX  ERROR ibv_create_cq(cqe=256) failed: Connection timed out
[1738776374.026661] [ohm:2764661:0]        ib_iface.c:1059 UCX  ERROR ibv_create_cq(cqe=256) failed: Connection timed out
[1738776374.027270] [ohm:2764747:0]        ib_iface.c:1059 UCX  ERROR ibv_create_cq(cqe=256) failed: Connection timed out
[1738776374.030809] [ohm:2764780:0]        ib_iface.c:1059 UCX  ERROR ibv_create_cq(cqe=256) failed: Connection timed out
[1738776374.031714] [ohm:2764708:0]        ib_iface.c:1059 UCX  ERROR ibv_create_cq(cqe=256) failed: Connection timed out
[1738776374.031852] [ohm:2764681:0]        ib_iface.c:1059 UCX  ERROR ibv_create_cq(cqe=256) failed: Connection timed out
[1738776374.032313] [ohm:2764756:0]        ib_iface.c:1059 UCX  ERROR ibv_create_cq(cqe=256) failed: Connection timed out
[1738776374.036032] [ohm:2764783:0]        ib_iface.c:1059 UCX  ERROR ibv_create_cq(cqe=256) failed: Connection timed out
[1738776374.036270] [ohm:2764753:0]        ib_iface.c:1059 UCX  ERROR ibv_create_cq(cqe=256) failed: Connection timed out
[1738776374.036753] [ohm:2764648:0]        ib_iface.c:1059 UCX  ERROR ibv_create_cq(cqe=256) failed: Connection timed out
[1738776374.042423] [ohm:2764700:0]        ib_iface.c:1059 UCX  ERROR ibv_create_cq(cqe=256) failed: Connection timed out
[1738776374.043485] [ohm:2764768:0]        ib_iface.c:1059 UCX  ERROR ibv_create_cq(cqe=256) failed: Connection timed out
[1738776374.043495] [ohm:2764773:0]        ib_iface.c:1059 UCX  ERROR ibv_create_cq(cqe=256) failed: Connection timed out
[1738776374.047668] [ohm:2764690:0]        ib_iface.c:1059 UCX  ERROR ibv_create_cq(cqe=256) failed: Connection timed out
[1738776374.048125] [ohm:2764734:0]        ib_iface.c:1059 UCX  ERROR ibv_create_cq(cqe=256) failed: Connection timed out
[1738776374.049075] [ohm:2764645:0]        ib_iface.c:1059 UCX  ERROR ibv_create_cq(cqe=256) failed: Connection timed out
[1738776374.050581] [ohm:2764765:0]        ib_iface.c:1059 UCX  ERROR ibv_create_cq(cqe=256) failed: Connection timed out
[1738776374.050534] [ohm:2764749:0]        ib_iface.c:1059 UCX  ERROR ibv_create_cq(cqe=256) failed: Connection timed out
[1738776374.051189] [ohm:2764636:0]        ib_iface.c:1059 UCX  ERROR ibv_create_cq(cqe=256) failed: Connection timed out
[1738776374.051727] [ohm:2764654:0]        ib_iface.c:1059 UCX  ERROR ibv_create_cq(cqe=256) failed: Connection timed out


           ************************************************************
           *        Program running with 64 parallel MPI-processes    *
           *              working on a common directory               *
           ************************************************************

------------------------------------------------------------------------------
                              ORCA PROPERTY CALCULATIONS
------------------------------------------------------------------------------

GBWName                                 ... orca.gbw
Number of atoms                         ...     30
Number of basis functions               ...    882
Max core memory                         ...   1024 MB

Electric properties:
Dipole moment                           ... YES
Quadrupole moment                       ...  NO
Static polarizability (Dipole/Dipole)   ...  NO
Static polarizability (Dipole/Quad.)    ...  NO
Static polarizability (Quad./Quad.)     ...  NO
Static polarizability (Velocity)        ...  NO

Atomic electric properties:
Dipole moment                           ...  NO
Quadrupole moment                       ...  NO
Static polarizability                   ...  NO

Choice of electric origin               ... Center of mass
Position of electric origin             ...     0.034378    -0.038402     0.080424

General magnetic properties:
Magnetizability                         ...  NO

EPR properties:
g-Tensor (aka g-matrix)                 ...  NO
Zero-Field splitting spin-orbit         ...  NO
Zero-field splitting spin-spin          ...  NO
Hyperfine couplings                     ...  NO (   0 nuclei)
Quadrupole couplings                    ...  NO (   0 nuclei)
Contact density                         ...  NO (   0 nuclei)

NMR properties:
Chemical shifts                         ...  NO (   0 nuclei)
Spin-rotation constants                 ...  NO (   0 nuclei)
Spin-spin couplings                     ...  NO (   0 nuclei,    0 pairs)

Choice of magnetic origin               ... GIAO
Position of magnetic origin             ...     0.000000     0.000000     0.000000

Properties with geometric perturbations:
SCF Hessian                             ...  NO
IR spectrum                             ...  NO
VCD spectrum                            ...  NO
X-ray spectroscopy properties:
SCF XES/XAS/RIXS spectra                ...  NO


-------------
DIPOLE MOMENT
-------------

Method             : SCF
Type of density    : Electron Density
Multiplicity       :   1
Irrep              :   0
Energy             :  -908.8755009761785004 Eh
Relativity type    : 
Basis              : AO
                                X                 Y                 Z
Electronic contribution:     -2.657131777     -10.383100130      -5.998041286
Nuclear contribution   :      1.783358804      11.437950687       8.467890029
                        -----------------------------------------
Total Dipole Moment    :     -0.873772973       1.054850557       2.469848743
                        -----------------------------------------
Magnitude (a.u.)       :      2.824241796
Magnitude (Debye)      :      7.178652148



--------------------
Rotational spectrum 
--------------------
 
Rotational constants in cm-1:             0.017770             0.015246             0.012070 
Rotational constants in MHz :           532.721394           457.051981           361.838295 

Dipole components along the rotational axes: 
x,y,z [a.u.] :     1.526352     1.004350     2.153572 
x,y,z [Debye]:     3.879679     2.552854     5.473945 

 

Dipole moment calculation done in   0.1 sec 

Maximum memory used throughout the entire PROP-calculation: 74.9 MB
[1738776376.312896] [ohm:2764967:0]        ib_iface.c:1059 UCX  ERROR ibv_create_cq(cqe=256) failed: Connection timed out
[1738776376.315163] [ohm:2764965:0]        ib_iface.c:1059 UCX  ERROR ibv_create_cq(cqe=256) failed: Connection timed out
[1738776376.353743] [ohm:2764978:0]        ib_iface.c:1059 UCX  ERROR ibv_create_cq(cqe=256) failed: Connection timed out
[1738776376.374354] [ohm:2764963:0]        ib_iface.c:1059 UCX  ERROR ibv_create_cq(cqe=256) failed: Connection timed out
[1738776376.374863] [ohm:2764977:0]        ib_iface.c:1059 UCX  ERROR ibv_create_cq(cqe=256) failed: Connection timed out
[1738776376.398594] [ohm:2764974:0]        ib_iface.c:1059 UCX  ERROR ibv_create_cq(cqe=256) failed: Connection timed out
[1738776376.402421] [ohm:2764982:0]        ib_iface.c:1059 UCX  ERROR ibv_create_cq(cqe=256) failed: Connection timed out
[1738776376.404630] [ohm:2764972:0]        ib_iface.c:1059 UCX  ERROR ibv_create_cq(cqe=256) failed: Connection timed out
[1738776376.417871] [ohm:2764991:0]        ib_iface.c:1059 UCX  ERROR ibv_create_cq(cqe=256) failed: Connection timed out
[1738776376.423423] [ohm:2765057:0]        ib_iface.c:1059 UCX  ERROR ibv_create_cq(cqe=256) failed: Connection timed out
[1738776376.424520] [ohm:2764976:0]        ib_iface.c:1059 UCX  ERROR ibv_create_cq(cqe=256) failed: Connection timed out
[1738776376.424652] [ohm:2765003:0]        ib_iface.c:1059 UCX  ERROR ibv_create_cq(cqe=256) failed: Connection timed out
[1738776376.427279] [ohm:2764998:0]        ib_iface.c:1059 UCX  ERROR ibv_create_cq(cqe=256) failed: Connection timed out
[1738776376.431304] [ohm:2765001:0]        ib_iface.c:1059 UCX  ERROR ibv_create_cq(cqe=256) failed: Connection timed out
[1738776376.440393] [ohm:2765006:0]        ib_iface.c:1059 UCX  ERROR ibv_create_cq(cqe=256) failed: Connection timed out
[1738776376.445710] [ohm:2765002:0]        ib_iface.c:1059 UCX  ERROR ibv_create_cq(cqe=256) failed: Connection timed out
[1738776376.456541] [ohm:2764997:0]        ib_iface.c:1059 UCX  ERROR ibv_create_cq(cqe=256) failed: Connection timed out
[1738776376.484772] [ohm:2765063:0]        ib_iface.c:1059 UCX  ERROR ibv_create_cq(cqe=256) failed: Connection timed out
[1738776376.506939] [ohm:2765004:0]        ib_iface.c:1059 UCX  ERROR ibv_create_cq(cqe=256) failed: Connection timed out
[1738776376.514928] [ohm:2765023:0]        ib_iface.c:1059 UCX  ERROR ibv_create_cq(cqe=256) failed: Connection timed out
[1738776376.515675] [ohm:2765035:0]        ib_iface.c:1059 UCX  ERROR ibv_create_cq(cqe=256) failed: Connection timed out
[1738776376.517955] [ohm:2765103:0]        ib_iface.c:1059 UCX  ERROR ibv_create_cq(cqe=256) failed: Connection timed out
[1738776376.521077] [ohm:2765064:0]        ib_iface.c:1059 UCX  ERROR ibv_create_cq(cqe=256) failed: Connection timed out
[1738776376.528409] [ohm:2765029:0]        ib_iface.c:1059 UCX  ERROR ibv_create_cq(cqe=256) failed: Connection timed out
[1738776376.529817] [ohm:2765091:0]        ib_iface.c:1059 UCX  ERROR ibv_create_cq(cqe=256) failed: Connection timed out
[1738776376.551078] [ohm:2765050:0]        ib_iface.c:1059 UCX  ERROR ibv_create_cq(cqe=256) failed: Connection timed out
[1738776376.556821] [ohm:2765009:0]        ib_iface.c:1059 UCX  ERROR ibv_create_cq(cqe=256) failed: Connection timed out
[1738776376.568920] [ohm:2765071:0]        ib_iface.c:1059 UCX  ERROR ibv_create_cq(cqe=256) failed: Connection timed out
[1738776376.569365] [ohm:2765059:0]        ib_iface.c:1059 UCX  ERROR ibv_create_cq(cqe=256) failed: Connection timed out
[1738776376.570043] [ohm:2765037:0]        ib_iface.c:1059 UCX  ERROR ibv_create_cq(cqe=256) failed: Connection timed out
[1738776376.572237] [ohm:2765110:0]        ib_iface.c:1059 UCX  ERROR ibv_create_cq(cqe=256) failed: Connection timed out
[1738776376.575660] [ohm:2765077:0]        ib_iface.c:1059 UCX  ERROR ibv_create_cq(cqe=256) failed: Connection timed out
[1738776376.575804] [ohm:2765069:0]        ib_iface.c:1059 UCX  ERROR ibv_create_cq(cqe=256) failed: Connection timed out
[1738776376.579984] [ohm:2764981:0]        ib_iface.c:1059 UCX  ERROR ibv_create_cq(cqe=256) failed: Connection timed out
[1738776376.583084] [ohm:2765092:0]        ib_iface.c:1059 UCX  ERROR ibv_create_cq(cqe=256) failed: Connection timed out
[1738776376.590368] [ohm:2765087:0]        ib_iface.c:1059 UCX  ERROR ibv_create_cq(cqe=256) failed: Connection timed out
[1738776376.596989] [ohm:2764970:0]        ib_iface.c:1059 UCX  ERROR ibv_create_cq(cqe=256) failed: Connection timed out
[1738776376.602957] [ohm:2765084:0]        ib_iface.c:1059 UCX  ERROR ibv_create_cq(cqe=256) failed: Connection timed out
[1738776376.604123] [ohm:2765075:0]        ib_iface.c:1059 UCX  ERROR ibv_create_cq(cqe=256) failed: Connection timed out
[1738776376.616303] [ohm:2765044:0]        ib_iface.c:1059 UCX  ERROR ibv_create_cq(cqe=256) failed: Connection timed out
[1738776376.621090] [ohm:2765025:0]        ib_iface.c:1059 UCX  ERROR ibv_create_cq(cqe=256) failed: Connection timed out
[1738776376.625149] [ohm:2765008:0]        ib_iface.c:1059 UCX  ERROR ibv_create_cq(cqe=256) failed: Connection timed out
[1738776376.630238] [ohm:2765097:0]        ib_iface.c:1059 UCX  ERROR ibv_create_cq(cqe=256) failed: Connection timed out
[1738776376.636404] [ohm:2765107:0]        ib_iface.c:1059 UCX  ERROR ibv_create_cq(cqe=256) failed: Connection timed out
[1738776376.641842] [ohm:2765053:0]        ib_iface.c:1059 UCX  ERROR ibv_create_cq(cqe=256) failed: Connection timed out
[1738776376.643350] [ohm:2764964:0]        ib_iface.c:1059 UCX  ERROR ibv_create_cq(cqe=256) failed: Connection timed out
[1738776376.646878] [ohm:2764971:0]        ib_iface.c:1059 UCX  ERROR ibv_create_cq(cqe=256) failed: Connection timed out
[1738776376.647424] [ohm:2764968:0]        ib_iface.c:1059 UCX  ERROR ibv_create_cq(cqe=256) failed: Connection timed out
[1738776376.649320] [ohm:2764989:0]        ib_iface.c:1059 UCX  ERROR ibv_create_cq(cqe=256) failed: Connection timed out
[1738776376.650293] [ohm:2764969:0]        ib_iface.c:1059 UCX  ERROR ibv_create_cq(cqe=256) failed: Connection timed out
[1738776376.652854] [ohm:2765020:0]        ib_iface.c:1059 UCX  ERROR ibv_create_cq(cqe=256) failed: Connection timed out
[1738776376.653672] [ohm:2765065:0]        ib_iface.c:1059 UCX  ERROR ibv_create_cq(cqe=256) failed: Connection timed out
[1738776376.653864] [ohm:2765047:0]        ib_iface.c:1059 UCX  ERROR ibv_create_cq(cqe=256) failed: Connection timed out
[1738776376.654331] [ohm:2765080:0]        ib_iface.c:1059 UCX  ERROR ibv_create_cq(cqe=256) failed: Connection timed out
[1738776376.655991] [ohm:2764979:0]        ib_iface.c:1059 UCX  ERROR ibv_create_cq(cqe=256) failed: Connection timed out
[1738776376.656469] [ohm:2765101:0]        ib_iface.c:1059 UCX  ERROR ibv_create_cq(cqe=256) failed: Connection timed out
[1738776376.656953] [ohm:2764966:0]        ib_iface.c:1059 UCX  ERROR ibv_create_cq(cqe=256) failed: Connection timed out
[1738776376.657834] [ohm:2764980:0]        ib_iface.c:1059 UCX  ERROR ibv_create_cq(cqe=256) failed: Connection timed out
[1738776376.659373] [ohm:2764983:0]        ib_iface.c:1059 UCX  ERROR ibv_create_cq(cqe=256) failed: Connection timed out
[1738776376.661210] [ohm:2765016:0]        ib_iface.c:1059 UCX  ERROR ibv_create_cq(cqe=256) failed: Connection timed out
[1738776376.662475] [ohm:2764985:0]        ib_iface.c:1059 UCX  ERROR ibv_create_cq(cqe=256) failed: Connection timed out
[1738776376.668840] [ohm:2765014:0]        ib_iface.c:1059 UCX  ERROR ibv_create_cq(cqe=256) failed: Connection timed out
[1738776376.671562] [ohm:2764973:0]        ib_iface.c:1059 UCX  ERROR ibv_create_cq(cqe=256) failed: Connection timed out
[1738776376.675594] [ohm:2764975:0]        ib_iface.c:1059 UCX  ERROR ibv_create_cq(cqe=256) failed: Connection timed out

--------------------------------
SUGGESTED CITATIONS FOR THIS RUN
--------------------------------

Below you find a list of papers that are relevant to this ORCA run
We neither can nor want to force you to cite these papers, but we appreciate if you do
You receive ORCA, which is the product of decades of hard work by many enthusiastic individuals, for free
The only thing we kindly ask in return is that you cite our papers,
We deeply appreciate it, if you show your appreciation for ORCA by not just citing the generic ORCA reference.

Please note that relegating all ORCA citations to the supporting information does *not* help us.
SI sections are not indexed - citations you put there will not count into any citation statistics
But we need these citations in order to attract the funding resources that allow us to do what we are doing

Therefore, if you are a happy ORCA user, please consider citing a few of the papers listed below in the main body of your paper

In addition to the list printed below, the program has created the file orca.bibtex that contains the list in bibtex format
You can import this file easily into all common literature databanks and citation aid programs


List of essential papers. We consider these as the minimum necessary citations

  1. Neese,F.
     Software update: the ORCA program system, version 5.0
     WIRES Comput. Molec. Sci., 2022 12(1)e1606
     doi.org/10.1002/wcms.1606

List of papers to cite with high priority. The work reported in these papers was absolutely
necessary for this run to complete.
Our perspective: the developers of density functionals and basis sets usually get cited in chemistry papers
Good! But without the algorithms to do something with them, the functionals or basis sets would not do anything.
Hence, in our opinion, the algorithm design and method developments papers are equally worthy of getting cited

  1. Neese,F.
     An improvement of the resolution of the identity approximation for the formation of the Coulomb matrix
     J. Comp. Chem., 2003 24(14)1740-1747
     doi.org/10.1002/jcc.10318
  2. Neese,F.; Wennmohs,F.; Hansen,A.; Becker,U.
     Efficient, approximate and parallel Hartree-Fock and hybrid DFT calculations. A 'chain-of-spheres' algorithm for the Hartree-Fock exchange
     Chem. Phys., 2009 356(1-3)98-109
     doi.org/10.1016/j.chemphys.2008.10.036
  3. Helmich-Paris,B.; de Souza,B.; Neese,F.; Izsák,R.
     An improved chain of spheres for exchange algorithm
     J. Chem. Phys., 2021 155 104109
     doi.org/doi: 10.1063/5.0058766.
  4. Neese,F.
     The SHARK Integral Generation and Digestion System
     J. Comp. Chem., 2022  1-16
     doi.org/10.1002/jcc.26942
  5. Lehtola,S.; Steigemann,C.; Oliveira,M.; Marques,M.
     Recent developments in Libxc - A comprehensive library of functionals for density functional theory
     Software X, 2018 7 
     doi.org/10.1016/j.softx.2017.11.002
  6. Grimme,S.; Antony,J.; Ehrlich,S.; Krieg,H.
     A consistent and accurate ab initio parametrization of density functional dispersion correction (DFT-D) for the 94 elements H-Pu
     J. Chem. Phys., 2010 132 154104-XXXX
     doi.org/10.1063/1.3382344
  7. Grimme,S.; Ehrlich,S.; Goerigk,L.
     Effect of the damping function in dispersion corrected density functional theory
     J. Comput. Chem., 2011 32(7)1456-1465
     doi.org/10.1002/jcc.21759

List of suggested additional citations. These are papers that are important in the 'surrounding' of 
of this run, or papers that preceded the highly important papers. If you like your results we are grateful for a citation.

  1. Izsak,R.; Neese,F.
     An overlap fitted chain of spheres exchange method
     J. Chem. Phys., 2011 135 144105
     doi.org/10.1063/1.3646921
  2. Izsak,R.; Hansen,A.; Neese,F.
     The resolution of identity and chain of spheres approximations for the LPNO-CCSD singles Fock term
     Molec. Phys., 2012 110 2413-2417
     doi.org/10.1080/00268976.2012.687466
  3. Neese,F.
     The ORCA program system
     WIRES Comput. Molec. Sci., 2012 2(1)73-78
     doi.org/10.1002/wcms.81
  4. Izsak,R.; Neese,F.; Klopper,W.
     Robust fitting techniques in the chain of spheres approximation to the Fock exchange: The role of the complementary space
     J. Chem. Phys., 2013 139 
     doi.org/10.1063/1.4819264
  5. Neese,F.
     Software update: the ORCA program system, version 4.0
     WIRES Comput. Molec. Sci., 2018 8(1)1-6
     doi.org/10.1002/wcms.1327
  6. Neese,F.; Wennmohs,F.; Becker,U.; Riplinger,C.
     The ORCA quantum chemistry program package
     J. Chem. Phys., 2020 152 Art. No. L224108
     doi.org/10.1063/5.0004608

List of optional additional citations

  1. Neese,F.
     Approximate second-order SCF convergence for spin unrestricted wavefunctions
     Chem. Phys. Lett., 2000 325(1-3)93-98
     doi.org/10.1016/s0009-2614(00)00662-x

Timings for individual modules:

Sum of individual times          ...     4073.278 sec (=  67.888 min)
Startup calculation              ...      266.732 sec (=   4.446 min)   6.5 %
SCF iterations                   ...     2914.052 sec (=  48.568 min)  71.5 %
Property calculations            ...        2.673 sec (=   0.045 min)   0.1 %
SCF Gradient evaluation          ...      889.052 sec (=  14.818 min)  21.8 %
Geometry relaxation              ...        0.770 sec (=   0.013 min)   0.0 %
                             ****ORCA TERMINATED NORMALLY****
TOTAL RUN TIME: 0 days 1 hours 9 minutes 8 seconds 717 msec
