7
Properties=species:S:1:pos:R:3:momenta:R:3:forces:R:3 Coordinates=T from=T ORCA-job=T orca=T E=T -153.922068275156=T energy=-4183.778019409753 free_energy=-4183.778019409753 stress="-2.6096173018130334e-06 -5.631249957003312e-06 -4.2221781448756094e-07 -5.631249957003312e-06 -1.9005898240299857e-05 2.7919855975774523e-06 -4.2221781448756094e-07 2.7919855975774523e-06 -8.021146201920999e-07" pbc="F F F"
O        0.81327338       1.38951878      -0.00041788       0.14631573       1.33868124      -0.26515367       0.57571471       4.56932103      -1.33556485
C        0.52211397       0.22269398       0.21592016      -0.19989699      -1.09946975       0.75004163      -0.14289773      -4.58242719       1.67832236
C       -0.46015738      -0.80236879      -0.23992649       0.23237884      -0.19114085      -0.17295888      -0.40383542      -0.40360570      -0.05798999
H        1.17847554      -0.25877339       0.96298809       0.02651269       0.13355927      -0.08733635       0.24314019       0.28242220       0.11635776
H        0.11253427      -1.65600180      -0.61861709      -0.04487833      -0.05359432      -0.10770740      -0.29820940      -0.02278860      -0.18370057
H       -1.17785539      -0.47652898      -0.99369917      -0.05563755      -0.01495367      -0.06967075       0.22925903       0.18913290       0.13674806
H       -0.99229294      -1.15539026       0.65458613      -0.10479439      -0.11308191      -0.04721457      -0.20317137      -0.03205464      -0.35417278
