30
Properties=species:S:1:pos:R:3:momenta:R:3:forces:R:3 Coordinates=T from=T ORCA-job=T orca=T E=T -908.819404455468=T energy=-24729.146443376576 free_energy=-24729.146443376576 stress="5.822417890982778e-08 6.701281416747703e-07 -1.9533931558758004e-06 6.701281416747703e-07 3.3612674853270436e-07 2.489939998257418e-07 -1.9533931558758004e-06 2.489939998257418e-07 1.962706295513512e-06" pbc="F F F"
O        3.11472325       0.53952260      -0.85919076       0.21775942       0.05266210       0.09906651       0.09333195       0.08154718      -0.02896827
O       -0.44036904       1.34518391      -2.30964785      -0.05659327      -0.21821814      -0.25735597       0.06944544       0.14783396      -0.18554939
O        0.42294714      -3.06785059      -0.54553779       0.11917259       0.02637288      -0.01788107      -0.04751383      -0.02907278       0.00075810
O       -3.14993303      -1.59248066      -0.25318676       0.03994947      -0.20700011       0.29374868      -0.00088878      -0.01308731       0.04333975
N        0.28719985      -1.51914701       1.10458269      -0.10630693      -0.05260548      -0.04935878      -0.06235134       0.24417640      -0.03927139
N       -2.12923757      -0.02947163       1.04976941      -0.12370599       0.09317273      -0.11335345       0.08358723      -0.28996640       0.06136016
N        1.59069781      -1.14009827      -0.78927533      -0.04856245      -0.09181928      -0.08445058       0.03360364      -0.00674711      -0.10338521
N       -1.50382994      -0.30728055      -1.17186889      -0.03025819      -0.04865177      -0.05585345      -0.12784813      -0.16541034       0.07970271
C        1.59080052       0.53291279       0.94221839      -0.09490320      -0.49344728       0.18605604       0.09340704      -1.11390955       1.00587739
C       -0.62803053       1.56663123       0.04748386      -0.36179154       0.05058902       0.05745215      -1.80087256      -0.35375498       0.05819590
C        0.37459520      -0.15409148       1.57829901       0.04090887       0.06732358       0.05590583       1.27128249       0.02020944      -0.85090580
C       -0.91819722       0.71835209       1.27831533       0.12936676       0.23791061      -0.25468259       0.25138906       1.04799088      -0.79118046
C        2.31061881       1.58637860       1.69555697       0.11262059       0.17649711      -0.09763138      -0.25234337       0.08875530      -0.27795491
C       -0.59864064       3.04175747       0.11179841       0.04991036       0.10533416       0.05581653       0.49314207      -0.26425318      -0.08340108
C        2.17509574       0.01413805      -0.28805058      -0.21530182       0.09311597       0.18758558      -0.22143287       0.21831261       0.44049132
C       -0.81912202       0.90546516      -1.24289416      -0.11548959       0.15462893       0.28334827      -0.00764171       0.24101183       0.57672091
C        0.72968677      -1.98353711      -0.10613639       0.06404628       0.06087339      -0.11387164       0.07489877      -0.08214601      -0.06415607
C       -2.32324516      -0.72040123      -0.12237724       0.19566825      -0.15181346      -0.22254587      -0.04782433       0.01495492      -0.16494899
H        0.51467869      -0.19522281       2.65320087      -0.01663885       0.05014462      -0.03248588       0.00632861       0.12597210       0.13387651
H       -1.08153557       1.38095060       2.13082416       0.01293987      -0.01169938       0.01427451       0.07471404      -0.08320009      -0.09752810
H        3.01359434       2.10791046       1.05104727       0.00805842       0.05416801      -0.03595747      -0.04127514      -0.02936472       0.00595238
H        1.62422703       2.30339774       2.15022750       0.00609588       0.04569364       0.04000904       0.01033453      -0.02150750       0.01304236
H        2.87207710       1.13478759       2.51687712       0.00752669       0.06832603       0.01642893       0.04526532      -0.05119834       0.05400839
H       -1.59392546       3.42447679       0.36019306       0.07974683       0.01073772       0.06547573      -0.07976757      -0.05092379      -0.02697756
H        0.06407967       3.39297884       0.89818708      -0.05764496       0.01847576       0.02553312       0.08784048       0.11284434       0.01297127
H       -0.29609078       3.44293994      -0.84981011       0.01218704      -0.05442875      -0.03610961       0.01913892       0.09624406       0.02090854
H       -0.37103799      -2.13557336       1.54153127       0.01267553       0.00179214       0.00564243      -0.09927199      -0.04751353       0.00913749
H       -2.69412531      -0.36281189       1.81965332       0.05479637      -0.04489151       0.04324063       0.20390652       0.06207483      -0.11458742
H        1.98082305      -1.50672477      -1.65195653       0.06447161      -0.00329469      -0.04767542      -0.12976642       0.07372568       0.23452871
H       -1.66096208      -0.78396357      -2.04851061      -0.00070404       0.01005145      -0.01037084       0.00718194       0.02640211       0.07794277
