
                                 *****************
                                 * O   R   C   A *
                                 *****************

                                            #,                                       
                                            ###                                      
                                            ####                                     
                                            #####                                    
                                            ######                                   
                                           ########,                                 
                                     ,,################,,,,,                         
                               ,,#################################,,                 
                          ,,##########################################,,             
                       ,#########################################, ''#####,          
                    ,#############################################,,   '####,        
                  ,##################################################,,,,####,       
                ,###########''''           ''''###############################       
              ,#####''   ,,,,##########,,,,          '''####'''          '####       
            ,##' ,,,,###########################,,,                        '##       
           ' ,,###''''                  '''############,,,                           
         ,,##''                                '''############,,,,        ,,,,,,###''
      ,#''                                            '''#######################'''  
     '                                                          ''''####''''         
             ,#######,   #######,   ,#######,      ##                                
            ,#'     '#,  ##    ##  ,#'     '#,    #''#        ,####,   ,####,        
            ##       ##  ##   ,#'  ##            #'  '#       #'       #'  '#        
            ##       ##  #######   ##           ,######,      #####,   #    #        
            '#,     ,#'  ##    ##  '#,     ,#' ,#      #,     #,   #   #,  ,#        
             '#######'   ##     ##  '#######'  #'      '#     '####' # '####'        



                #########################################################
                #                        -***-                          #
                #          Department of theory and spectroscopy        #
                #                                                       #
                #                      Frank Neese                      #
                #                                                       #
                #     Directorship, Architecture, Infrastructure        #
                #                    SHARK, DRIVERS                     #
                #        Core code/Algorithms in most modules           #
                #                                                       #
                #        Max Planck Institute fuer Kohlenforschung      #
                #                Kaiser Wilhelm Platz 1                 #
                #                 D-45470 Muelheim/Ruhr                 #
                #                      Germany                          #
                #                                                       #
                #                  All rights reserved                  #
                #                        -***-                          #
                #########################################################


                         Program Version 6.0.0  -   RELEASE  -


 With contributions from (in alphabetic order):
   Daniel Aravena         : Magnetic Suceptibility
   Michael Atanasov       : Ab Initio Ligand Field Theory (pilot matlab implementation)
   Alexander A. Auer      : GIAO ZORA, VPT2 properties, NMR spectrum
   Ute Becker             : All parallelization in ORCA, NUMFREQ, NUMCALC
   Giovanni Bistoni       : ED, misc. LED, open-shell LED, HFLD
   Martin Brehm           : Molecular dynamics
   Dmytro Bykov           : pre 5.0 version of the SCF Hessian
   Marcos Casanova-Páez   : Triplet and SCS-CIS(D). UHF-(DLPNO)-IP/EA/STEOM-CCSD. UHF-CVS-IP/STEOM-CCSD
   Vijay G. Chilkuri      : MRCI spin determinant printing, contributions to CSF-ICE
   Pauline Colinet        : FMM embedding
   Dipayan Datta          : RHF DLPNO-CCSD density
   Achintya Kumar Dutta   : EOM-CC, STEOM-CC
   Nicolas Foglia         : Exact transition moments, OPA infrastructure, MCD improvements
   Dmitry Ganyushin       : Spin-Orbit,Spin-Spin,Magnetic field MRCI
   Miquel Garcia          : C-PCM and meta-GGA Hessian, CCSD/C-PCM, Gaussian charge scheme
   Tiago L. C. Gouveia    : GS-ROHF, GS-ROCIS
   Yang Guo               : DLPNO-NEVPT2, F12-NEVPT2, CIM, IAO-localization
   Andreas Hansen         : Spin unrestricted coupled pair/coupled cluster methods
   Ingolf Harden          : AUTO-CI MPn and infrastructure 
   Benjamin Helmich-Paris : MC-RPA, TRAH-(SCF,CASSCF), AVAS, COSX integrals, SCF dyn. polar.
   Lee Huntington         : MR-EOM, pCC
   Robert Izsak           : Overlap fitted RIJCOSX, COSX-SCS-MP3, EOM
   Riya Kayal             : Wick's Theorem for AUTO-CI, AUTO-CI UHF-CCSDT
   Emily Kempfer          : AUTO-CI, RHF CISDT and CCSDT
   Christian Kollmar      : KDIIS, OOCD, Brueckner-CCSD(T), CCSD density, CASPT2, CASPT2-K, improved NEVPT2
   Axel Koslowski         : Symmetry handling
   Simone Kossmann        : Meta GGA functionals, TD-DFT gradient, OOMP2, (MP2 Hessian; deprecated post 5.0)
   Lucas Lang             : DCDCAS
   Marvin Lechner         : AUTO-CI (C++ implementation), FIC-MRCC
   Spencer Leger          : CASSCF response
   Dagmar Lenk            : GEPOL surface, SMD, ORCA-2-JSON
   Dimitrios Liakos       : Extrapolation schemes; Compound Job, initial MDCI parallelization
   Dimitrios Manganas     : Further ROCIS development; embedding schemes. LFT, Crystal Embedding
   Dimitrios Pantazis     : SARC Basis sets
   Anastasios Papadopoulos: AUTO-CI, single reference methods and gradients
   Taras Petrenko         : pre 6.0 DFT Hessian and TD-DFT gradient, (ASA, deprecated), ECA, 1-Electron XAS/XES, NRVS
   Peter Pinski           : DLPNO-MP2, DLPNO-MP2 Gradient
   Christoph Reimann      : Effective Core Potentials
   Marius Retegan         : Local ZFS, SOC
   Christoph Riplinger    : Optimizer, TS searches, QM/MM, DLPNO-CCSD(T), (RO)-DLPNO pert. Triples
   Michael Roemelt        : Original ROCIS implementation
   Masaaki Saitow         : Open-shell DLPNO-CCSD energy and density
   Barbara Sandhoefer     : DKH picture change effects
   Kantharuban Sivalingam : CASSCF convergence/infrastructure, NEVPT2 and variants, FIC-MRCI
   Bernardo de Souza      : ESD, SOC TD-DFT
   Georgi Stoychev        : AutoAux, RI-MP2 NMR, DLPNO-MP2 response, X2C
   Van Anh Tran           : RI-MP2 g-tensors
   Willem Van den Heuvel  : Paramagnetic NMR
   Zikuan Wang            : NOTCH, Electric field optimization 
   Frank Wennmohs         : Technical directorship and infrastructure
   Hang Xu                : AUTO-CI-Response properties 


 We gratefully acknowledge several colleagues who have allowed us to
 interface, adapt or use parts of their codes:
   Stefan Grimme, W. Hujo, H. Kruse, P. Pracht,  : VdW corrections, initial TS optimization,
                  C. Bannwarth, S. Ehlert,         DFT functionals, gCP, sTDA/sTD-DF
                  L. Wittmann, M. Mueller
   Ed Valeev, F. Pavosevic, A. Kumar             : LibInt (2-el integral package), F12 methods
   Garnet Chan, S. Sharma, J. Yang, R. Olivares  : DMRG
   Ulf Ekstrom                                   : XCFun DFT Library
   Mihaly Kallay                                 : mrcc  (arbitrary order and MRCC methods)
   Frank Weinhold                                : gennbo (NPA and NBO analysis)
   Simon Mueller                                 : openCOSMO-RS
   Christopher J. Cramer and Donald G. Truhlar   : smd solvation model
   Lars Goerigk                                  : TD-DFT with DH, B97 family of functionals
   V. Asgeirsson, H. Jonsson                     : NEB implementation
   FAccTs GmbH                                   : IRC, NEB, NEB-TS, DLPNO-Multilevel, CI-OPT
                                                   MM, QMMM, 2- and 3-layer-ONIOM, Crystal-QMMM,
                                                   LR-CPCM, SF, NACMEs, symmetry and pop. for TD-DFT,
                                                   nearIR, NL-DFT gradient (VV10), updates on ESD,
                                                   ML-optimized integration grids, MBIS, APM,
                                                   GOAT, DOCKER, SOLVATOR, interface openCOSMO-RS
   S Lehtola, MJT Oliveira, MAL Marques          : LibXC Library
   Liviu Ungur et al                             : ANISO software


 Your calculation uses the libint2 library for the computation of 2-el integrals
 For citations please refer to: http://libint.valeyev.net

 Your ORCA version has been built with support for libXC version: 6.2.2
 For citations please refer to: https://libxc.gitlab.io

 This ORCA versions uses:
   CBLAS   interface :  Fast vector & matrix operations
   LAPACKE interface :  Fast linear algebra routines
   SCALAPACK package :  Parallel linear algebra routines
   Shared memory     :  Shared parallel matrices
   BLAS/LAPACK       :  OpenBLAS 0.3.27  USE64BITINT DYNAMIC_ARCH NO_AFFINITY Zen SINGLE_THREADED
        Core in use  :  Zen
   Copyright (c) 2011-2014, The OpenBLAS Project


Your calculation utilizes the atom-pairwise dispersion correction
with the Becke-Johnson damping scheme (D3BJ)


Warning: RI is on but no J-basis has been assigned. Assigning Def2/J (nothing to worry about!)
================================================================================

----- Orbital basis set information -----
Your calculation utilizes the basis: def2-TZVPPD
   F. Weigend and R. Ahlrichs, Phys. Chem. Chem. Phys. 7, 3297 (2005).
   D. Rappoport and F. Furche, J. Chem. Phys. 133, 134105 (2010)
   D. Rappoport, J. Chem. Phys. 155, 124102 (2021).

----- AuxJ basis set information -----
Your calculation utilizes the auxiliary basis: def2/J
   F. Weigend, Phys. Chem. Chem. Phys. 8, 1057 (2006).

================================================================================
                                        WARNINGS
                       Please study these warnings very carefully!
================================================================================

Using LibXC functional ID 531 : wB97M-V exchange-correlation functional
[ 1]  N. Mardirossian and M. Head-Gordon.,  J. Chem. Phys. 144, 214110 (2016)
Using LibXC functional ID 531 : wB97M-V exchange-correlation functional
[ 1]  N. Mardirossian and M. Head-Gordon.,  J. Chem. Phys. 144, 214110 (2016)

WARNING: B97M-V or wB97M-V functional requested.
  ===> : libXC variant has now been activated.
         Any manually given DFX/HFX/RangeSep scaling parameters are IGNORED!

Your calculation utilizes LibXC
 by S Lehtola, C Steigemann, MJT Oliveira & MAL Marques
Please cite in your paper:
 S Lehtola, C Steigemann, MJT Oliveira & MAL Marques, SoftwareX, 7, (2018), 1.
   


WARNING: your system is open-shell and RHF/RKS was chosen
  ===> : WILL SWITCH to UHF/UKS

INFO   : Checking CIS options ...

WARNING: CIS/ROCIS methods need fully converged wavefunctions
  ===> : Setting SCFConvForced true
         You can overwrite this default with %scf ConvForced false 


================================================================================
                                       INPUT FILE
================================================================================
NAME = orca.inp
|  1> ! Engrad def2-TZVPPD wB97M-D3BJ 
|  2> %pal nprocs 8 end%pal nprocs 64 end 
|  3> %tddft 
|  4>  Iroot 1 Nroots 3 
|  5> sf true 
|  6> end 
|  7> *xyz 0 3 
|  8> O   3.03788019 -0.70499211 -1.64178231
|  9> O   -1.46743384 1.4125862 -2.17879124
| 10> O   -0.95042222 -2.67341234 -0.76226466
| 11> O   -3.46496593 0.09995531 1.65149379
| 12> N   0.02581695 -1.42946088 0.88454842
| 13> N   -1.31378664 0.7584476 1.88695948
| 14> N   1.07806188 -1.70451278 -1.21441873
| 15> N   -2.24141998 0.50344866 -0.20631352
| 16> C   2.08842535 -0.28658613 0.41089245
| 17> C   -0.12023519 1.40598521 -0.25050593
| 18> C   0.8058614 -0.30002718 1.21739997
| 19> C   -0.03892648 1.01156691 1.20064563
| 20> C   3.33662557 0.49245575 0.7136939
| 21> C   0.99907149 2.13642773 -0.80387804
| 22> C   2.15642953 -0.95825524 -0.83090289
| 23> C   -1.30370905 1.12010528 -0.96095778
| 24> C   -0.00464392 -1.94658847 -0.40924305
| 25> C   -2.42980142 0.39323952 1.17683839
| 26> H   1.09571715 -0.36429958 2.25673348
| 27> H   0.44239625 1.781925 1.72426742
| 28> H   3.8836043 0.93107557 -0.14722022
| 29> H   3.10855705 1.33573251 1.40031587
| 30> H   4.11826954 -0.22587666 1.01129402
| 31> H   0.64878574 2.84056279 -1.55849613
| 32> H   1.68523191 2.62867684 -0.10624134
| 33> H   1.58756565 1.47450421 -1.43264643
| 34> H   -0.82540923 -1.73816802 1.40787144
| 35> H   -1.48158153 1.1018488 2.80700145
| 36> H   1.0503028 -2.1135686 -2.19800793
| 37> H   -3.11516833 0.16205038 -0.65037322
| 38> *
| 39> 
| 40>                          ****END OF INPUT****
================================================================================

                     *******************************
                     * Energy+Gradient Calculation *
                     *******************************

---------------------------------
CARTESIAN COORDINATES (ANGSTROEM)
---------------------------------
  O      3.037880   -0.704992   -1.641782
  O     -1.467434    1.412586   -2.178791
  O     -0.950422   -2.673412   -0.762265
  O     -3.464966    0.099955    1.651494
  N      0.025817   -1.429461    0.884548
  N     -1.313787    0.758448    1.886959
  N      1.078062   -1.704513   -1.214419
  N     -2.241420    0.503449   -0.206314
  C      2.088425   -0.286586    0.410892
  C     -0.120235    1.405985   -0.250506
  C      0.805861   -0.300027    1.217400
  C     -0.038926    1.011567    1.200646
  C      3.336626    0.492456    0.713694
  C      0.999071    2.136428   -0.803878
  C      2.156430   -0.958255   -0.830903
  C     -1.303709    1.120105   -0.960958
  C     -0.004644   -1.946588   -0.409243
  C     -2.429801    0.393240    1.176838
  H      1.095717   -0.364300    2.256733
  H      0.442396    1.781925    1.724267
  H      3.883604    0.931076   -0.147220
  H      3.108557    1.335733    1.400316
  H      4.118270   -0.225877    1.011294
  H      0.648786    2.840563   -1.558496
  H      1.685232    2.628677   -0.106241
  H      1.587566    1.474504   -1.432646
  H     -0.825409   -1.738168    1.407871
  H     -1.481582    1.101849    2.807001
  H      1.050303   -2.113569   -2.198008
  H     -3.115168    0.162050   -0.650373

----------------------------
CARTESIAN COORDINATES (A.U.)
----------------------------
  NO LB      ZA    FRAG     MASS         X           Y           Z
   0 O     8.0000    0    15.999    5.740762   -1.332242   -3.102519
   1 O     8.0000    0    15.999   -2.773048    2.669401   -4.117319
   2 O     8.0000    0    15.999   -1.796038   -5.052017   -1.440471
   3 O     8.0000    0    15.999   -6.547837    0.188888    3.120871
   4 N     7.0000    0    14.007    0.048787   -2.701290    1.671554
   5 N     7.0000    0    14.007   -2.482697    1.433258    3.565837
   6 N     7.0000    0    14.007    2.037242   -3.221062   -2.294919
   7 N     7.0000    0    14.007   -4.235670    0.951380   -0.389876
   8 C     6.0000    0    12.011    3.946552   -0.541569    0.776474
   9 C     6.0000    0    12.011   -0.227212    2.656927   -0.473388
  10 C     6.0000    0    12.011    1.522857   -0.566969    2.300553
  11 C     6.0000    0    12.011   -0.073560    1.911584    2.268891
  12 C     6.0000    0    12.011    6.305309    0.930607    1.348686
  13 C     6.0000    0    12.011    1.887972    4.037263   -1.519109
  14 C     6.0000    0    12.011    4.075061   -1.810840   -1.570179
  15 C     6.0000    0    12.011   -2.463653    2.116692   -1.815947
  16 C     6.0000    0    12.011   -0.008776   -3.678519   -0.773357
  17 C     6.0000    0    12.011   -4.591659    0.743115    2.223902
  18 H     1.0000    0     1.008    2.070605   -0.688426    4.264608
  19 H     1.0000    0     1.008    0.836008    3.367350    3.258393
  20 H     1.0000    0     1.008    7.338949    1.759478   -0.278206
  21 H     1.0000    0     1.008    5.874321    2.524169    2.646213
  22 H     1.0000    0     1.008    7.782402   -0.426845    1.911069
  23 H     1.0000    0     1.008    1.226027    5.367886   -2.945131
  24 H     1.0000    0     1.008    3.184627    4.967479   -0.200767
  25 H     1.0000    0     1.008    3.000064    2.786409   -2.707309
  26 H     1.0000    0     1.008   -1.559797   -3.284662    2.660491
  27 H     1.0000    0     1.008   -2.799783    2.082192    5.304464
  28 H     1.0000    0     1.008    1.984785   -3.994066   -4.153633
  29 H     1.0000    0     1.008   -5.886815    0.306231   -1.229027

--------------------------------
INTERNAL COORDINATES (ANGSTROEM)
--------------------------------
 O      0   0   0     0.000000000000     0.00000000     0.00000000
 O      1   0   0     5.007032154760     0.00000000     0.00000000
 O      2   1   0     4.355368254918    57.42126109     0.00000000
 O      3   2   1     4.454293215148    61.64793249   128.08762759
 N      3   2   1     2.283079383713    76.94992160    64.51047167
 N      4   3   2     2.261996579326    72.59033603   288.64367761
 N      1   2   3     2.241108878988    54.70488363     0.47799977
 N      4   3   2     2.260822765354    50.23122538   355.37783867
 C      1   2   3     2.300000375574    69.34989874   289.29026456
 C      8   4   3     2.305634426034   125.69797850   261.96527234
 C      5   3   2     1.412402202281   147.33478359   322.63717302
 C      6   4   3     1.469817850399   145.72993707    43.73965663
 C      9   1   2     1.502197975676    86.05670887   235.72798120
 C     10   8   4     1.446587159850   156.46946112   207.25580432
 C      1   2   3     1.224182548810    60.70238146   323.08402304
 C      2   1   3     1.263118850988    71.46002177    62.00692400
 C      3   2   1     1.243942839474    68.55548684    32.11394877
 C      4   3   2     1.175958731992    55.91820809   316.28986154
 H     11   5   3     1.080907693662   109.09590444   191.13525242
 H     12   6   4     1.048476483382   106.94859832   148.96895026
 H     13   9   1     1.110291042738   117.25304435    26.74248423
 H     13   9   1     1.111116858597   110.34050342   148.57358440
 H     13   9   1     1.102512847326   107.79493508   279.04118556
 H     14  10   8     1.089933370041   110.02243328    23.71579348
 H     14  10   8     1.095363991309   117.90317760   151.80232512
 H     14  10   8     1.086194186574   109.44774817   275.22184118
 H      5   3   2     1.045826510979    81.49328936   108.74726993
 H      6   4   3     0.996271416750    92.08039935   210.57482653
 H      7   1   2     1.065619512188    91.02958609    93.53334386
 H      8   4   3     1.037871852340    80.63438762    85.04464721

---------------------------
INTERNAL COORDINATES (A.U.)
---------------------------
 O      0   0   0     0.000000000000     0.00000000     0.00000000
 O      1   0   0     9.461919516233     0.00000000     0.00000000
 O      2   1   0     8.230453214169    57.42126109     0.00000000
 O      3   2   1     8.417394296813    61.64793249   128.08762759
 N      3   2   1     4.314394777220    76.94992160    64.51047167
 N      4   3   2     4.274554050792    72.59033603   288.64367761
 N      1   2   3     4.235082017587    54.70488363     0.47799977
 N      4   3   2     4.272335863854    50.23122538   355.37783867
 C      1   2   3     4.346370817751    69.34989874   289.29026456
 C      8   4   3     4.357017630146   125.69797850   261.96527234
 C      5   3   2     2.669053353259   147.33478359   322.63717302
 C      6   4   3     2.777553204003   145.72993707    43.73965663
 C      9   1   2     2.838742772958    86.05670887   235.72798120
 C     10   8   4     2.733653560963   156.46946112   207.25580432
 C      1   2   3     2.313369755177    60.70238146   323.08402304
 C      2   1   3     2.386948702960    71.46002177    62.00692400
 C      3   2   1     2.350711292859    68.55548684    32.11394877
 C      4   3   2     2.222239948258    55.91820809   316.28986154
 H     11   5   3     2.042619517071   109.09590444   191.13525242
 H     12   6   4     1.981333411450   106.94859832   148.96895026
 H     13   9   1     2.098145999721   117.25304435    26.74248423
 H     13   9   1     2.099706565531   110.34050342   148.57358440
 H     13   9   1     2.083447340575   107.79493508   279.04118556
 H     14  10   8     2.059675573600   110.02243328    23.71579348
 H     14  10   8     2.069937960534   117.90317760   151.80232512
 H     14  10   8     2.052609540882   109.44774817   275.22184118
 H      5   3   2     1.976325689345    81.49328936   108.74726993
 H      6   4   3     1.882680132711    92.08039935   210.57482653
 H      7   1   2     2.013729040997    91.02958609    93.53334386
 H      8   4   3     1.961293563027    80.63438762    85.04464721

---------------------
BASIS SET INFORMATION
---------------------
There are 4 groups of distinct atoms

 Group   1 Type O   : 12s7p3d1f contracted to 6s4p3d1f pattern {621111/4111/111/1}
 Group   2 Type N   : 12s6p3d1f contracted to 6s3p3d1f pattern {621111/411/111/1}
 Group   3 Type C   : 12s6p3d1f contracted to 6s3p3d1f pattern {621111/411/111/1}
 Group   4 Type H   : 5s3p1d contracted to 3s3p1d pattern {311/111/1}

Atom   0O    basis set group =>   1
Atom   1O    basis set group =>   1
Atom   2O    basis set group =>   1
Atom   3O    basis set group =>   1
Atom   4N    basis set group =>   2
Atom   5N    basis set group =>   2
Atom   6N    basis set group =>   2
Atom   7N    basis set group =>   2
Atom   8C    basis set group =>   3
Atom   9C    basis set group =>   3
Atom  10C    basis set group =>   3
Atom  11C    basis set group =>   3
Atom  12C    basis set group =>   3
Atom  13C    basis set group =>   3
Atom  14C    basis set group =>   3
Atom  15C    basis set group =>   3
Atom  16C    basis set group =>   3
Atom  17C    basis set group =>   3
Atom  18H    basis set group =>   4
Atom  19H    basis set group =>   4
Atom  20H    basis set group =>   4
Atom  21H    basis set group =>   4
Atom  22H    basis set group =>   4
Atom  23H    basis set group =>   4
Atom  24H    basis set group =>   4
Atom  25H    basis set group =>   4
Atom  26H    basis set group =>   4
Atom  27H    basis set group =>   4
Atom  28H    basis set group =>   4
Atom  29H    basis set group =>   4
---------------------------------
AUXILIARY/J BASIS SET INFORMATION
---------------------------------
There are 4 groups of distinct atoms

 Group   1 Type O   : 12s5p4d2f1g contracted to 6s4p3d1f1g pattern {711111/2111/211/2/1}
 Group   2 Type N   : 12s5p4d2f1g contracted to 6s4p3d1f1g pattern {711111/2111/211/2/1}
 Group   3 Type C   : 12s5p4d2f1g contracted to 6s4p3d1f1g pattern {711111/2111/211/2/1}
 Group   4 Type H   : 5s2p1d contracted to 3s1p1d pattern {311/2/1}

Atom   0O    basis set group =>   1
Atom   1O    basis set group =>   1
Atom   2O    basis set group =>   1
Atom   3O    basis set group =>   1
Atom   4N    basis set group =>   2
Atom   5N    basis set group =>   2
Atom   6N    basis set group =>   2
Atom   7N    basis set group =>   2
Atom   8C    basis set group =>   3
Atom   9C    basis set group =>   3
Atom  10C    basis set group =>   3
Atom  11C    basis set group =>   3
Atom  12C    basis set group =>   3
Atom  13C    basis set group =>   3
Atom  14C    basis set group =>   3
Atom  15C    basis set group =>   3
Atom  16C    basis set group =>   3
Atom  17C    basis set group =>   3
Atom  18H    basis set group =>   4
Atom  19H    basis set group =>   4
Atom  20H    basis set group =>   4
Atom  21H    basis set group =>   4
Atom  22H    basis set group =>   4
Atom  23H    basis set group =>   4
Atom  24H    basis set group =>   4
Atom  25H    basis set group =>   4
Atom  26H    basis set group =>   4
Atom  27H    basis set group =>   4
Atom  28H    basis set group =>   4
Atom  29H    basis set group =>   4
[1741179627.955695] [ohm:60241:0]        ib_iface.c:1059 UCX  ERROR ibv_create_cq(cqe=256) failed: Connection timed out
[1741179627.958641] [ohm:60242:0]        ib_iface.c:1059 UCX  ERROR ibv_create_cq(cqe=256) failed: Connection timed out
[1741179627.986753] [ohm:60244:0]        ib_iface.c:1059 UCX  ERROR ibv_create_cq(cqe=256) failed: Connection timed out
[1741179627.988253] [ohm:60239:0]        ib_iface.c:1059 UCX  ERROR ibv_create_cq(cqe=256) failed: Connection timed out
[1741179627.992267] [ohm:60238:0]        ib_iface.c:1059 UCX  ERROR ibv_create_cq(cqe=256) failed: Connection timed out
[1741179628.003490] [ohm:60240:0]        ib_iface.c:1059 UCX  ERROR ibv_create_cq(cqe=256) failed: Connection timed out
[1741179628.028577] [ohm:60251:0]        ib_iface.c:1059 UCX  ERROR ibv_create_cq(cqe=256) failed: Connection timed out
[1741179628.031050] [ohm:60248:0]        ib_iface.c:1059 UCX  ERROR ibv_create_cq(cqe=256) failed: Connection timed out
[1741179628.031662] [ohm:60271:0]        ib_iface.c:1059 UCX  ERROR ibv_create_cq(cqe=256) failed: Connection timed out
[1741179628.035658] [ohm:60291:0]        ib_iface.c:1059 UCX  ERROR ibv_create_cq(cqe=256) failed: Connection timed out
[1741179628.038572] [ohm:60245:0]        ib_iface.c:1059 UCX  ERROR ibv_create_cq(cqe=256) failed: Connection timed out
[1741179628.043467] [ohm:60329:0]        ib_iface.c:1059 UCX  ERROR ibv_create_cq(cqe=256) failed: Connection timed out
[1741179628.043858] [ohm:60284:0]        ib_iface.c:1059 UCX  ERROR ibv_create_cq(cqe=256) failed: Connection timed out
[1741179628.084215] [ohm:60324:0]        ib_iface.c:1059 UCX  ERROR ibv_create_cq(cqe=256) failed: Connection timed out
[1741179628.100245] [ohm:60286:0]        ib_iface.c:1059 UCX  ERROR ibv_create_cq(cqe=256) failed: Connection timed out
[1741179628.100367] [ohm:60278:0]        ib_iface.c:1059 UCX  ERROR ibv_create_cq(cqe=256) failed: Connection timed out
[1741179628.105335] [ohm:60247:0]        ib_iface.c:1059 UCX  ERROR ibv_create_cq(cqe=256) failed: Connection timed out
[1741179628.156457] [ohm:60273:0]        ib_iface.c:1059 UCX  ERROR ibv_create_cq(cqe=256) failed: Connection timed out
[1741179628.172360] [ohm:60292:0]        ib_iface.c:1059 UCX  ERROR ibv_create_cq(cqe=256) failed: Connection timed out
[1741179628.173214] [ohm:60296:0]        ib_iface.c:1059 UCX  ERROR ibv_create_cq(cqe=256) failed: Connection timed out
[1741179628.173517] [ohm:60290:0]        ib_iface.c:1059 UCX  ERROR ibv_create_cq(cqe=256) failed: Connection timed out
[1741179628.174490] [ohm:60381:0]        ib_iface.c:1059 UCX  ERROR ibv_create_cq(cqe=256) failed: Connection timed out
[1741179628.175467] [ohm:60294:0]        ib_iface.c:1059 UCX  ERROR ibv_create_cq(cqe=256) failed: Connection timed out
[1741179628.177495] [ohm:60288:0]        ib_iface.c:1059 UCX  ERROR ibv_create_cq(cqe=256) failed: Connection timed out
[1741179628.189791] [ohm:60295:0]        ib_iface.c:1059 UCX  ERROR ibv_create_cq(cqe=256) failed: Connection timed out
[1741179628.190566] [ohm:60267:0]        ib_iface.c:1059 UCX  ERROR ibv_create_cq(cqe=256) failed: Connection timed out
[1741179628.191343] [ohm:60268:0]        ib_iface.c:1059 UCX  ERROR ibv_create_cq(cqe=256) failed: Connection timed out
[1741179628.198460] [ohm:60320:0]        ib_iface.c:1059 UCX  ERROR ibv_create_cq(cqe=256) failed: Connection timed out
[1741179628.200040] [ohm:60250:0]        ib_iface.c:1059 UCX  ERROR ibv_create_cq(cqe=256) failed: Connection timed out
[1741179628.203471] [ohm:60293:0]        ib_iface.c:1059 UCX  ERROR ibv_create_cq(cqe=256) failed: Connection timed out
[1741179628.204143] [ohm:60243:0]        ib_iface.c:1059 UCX  ERROR ibv_create_cq(cqe=256) failed: Connection timed out
[1741179628.212463] [ohm:60360:0]        ib_iface.c:1059 UCX  ERROR ibv_create_cq(cqe=256) failed: Connection timed out
[1741179628.212638] [ohm:60337:0]        ib_iface.c:1059 UCX  ERROR ibv_create_cq(cqe=256) failed: Connection timed out
[1741179628.218846] [ohm:60246:0]        ib_iface.c:1059 UCX  ERROR ibv_create_cq(cqe=256) failed: Connection timed out
[1741179628.223119] [ohm:60289:0]        ib_iface.c:1059 UCX  ERROR ibv_create_cq(cqe=256) failed: Connection timed out
[1741179628.224364] [ohm:60345:0]        ib_iface.c:1059 UCX  ERROR ibv_create_cq(cqe=256) failed: Connection timed out
[1741179628.229157] [ohm:60350:0]        ib_iface.c:1059 UCX  ERROR ibv_create_cq(cqe=256) failed: Connection timed out
[1741179628.234342] [ohm:60297:0]        ib_iface.c:1059 UCX  ERROR ibv_create_cq(cqe=256) failed: Connection timed out
[1741179628.235349] [ohm:60309:0]        ib_iface.c:1059 UCX  ERROR ibv_create_cq(cqe=256) failed: Connection timed out
[1741179628.235335] [ohm:60374:0]        ib_iface.c:1059 UCX  ERROR ibv_create_cq(cqe=256) failed: Connection timed out
[1741179628.258396] [ohm:60358:0]        ib_iface.c:1059 UCX  ERROR ibv_create_cq(cqe=256) failed: Connection timed out
[1741179628.258945] [ohm:60387:0]        ib_iface.c:1059 UCX  ERROR ibv_create_cq(cqe=256) failed: Connection timed out
[1741179628.261453] [ohm:60372:0]        ib_iface.c:1059 UCX  ERROR ibv_create_cq(cqe=256) failed: Connection timed out
[1741179628.265880] [ohm:60354:0]        ib_iface.c:1059 UCX  ERROR ibv_create_cq(cqe=256) failed: Connection timed out
[1741179628.266936] [ohm:60326:0]        ib_iface.c:1059 UCX  ERROR ibv_create_cq(cqe=256) failed: Connection timed out
[1741179628.271208] [ohm:60335:0]        ib_iface.c:1059 UCX  ERROR ibv_create_cq(cqe=256) failed: Connection timed out
[1741179628.272704] [ohm:60304:0]        ib_iface.c:1059 UCX  ERROR ibv_create_cq(cqe=256) failed: Connection timed out
[1741179628.275574] [ohm:60363:0]        ib_iface.c:1059 UCX  ERROR ibv_create_cq(cqe=256) failed: Connection timed out
[1741179628.276907] [ohm:60302:0]        ib_iface.c:1059 UCX  ERROR ibv_create_cq(cqe=256) failed: Connection timed out
[1741179628.278505] [ohm:60249:0]        ib_iface.c:1059 UCX  ERROR ibv_create_cq(cqe=256) failed: Connection timed out
[1741179628.280580] [ohm:60306:0]        ib_iface.c:1059 UCX  ERROR ibv_create_cq(cqe=256) failed: Connection timed out
[1741179628.281243] [ohm:60311:0]        ib_iface.c:1059 UCX  ERROR ibv_create_cq(cqe=256) failed: Connection timed out
[1741179628.283103] [ohm:60298:0]        ib_iface.c:1059 UCX  ERROR ibv_create_cq(cqe=256) failed: Connection timed out
[1741179628.284930] [ohm:60300:0]        ib_iface.c:1059 UCX  ERROR ibv_create_cq(cqe=256) failed: Connection timed out
[1741179628.284965] [ohm:60317:0]        ib_iface.c:1059 UCX  ERROR ibv_create_cq(cqe=256) failed: Connection timed out
[1741179628.285432] [ohm:60380:0]        ib_iface.c:1059 UCX  ERROR ibv_create_cq(cqe=256) failed: Connection timed out
[1741179628.289135] [ohm:60356:0]        ib_iface.c:1059 UCX  ERROR ibv_create_cq(cqe=256) failed: Connection timed out
[1741179628.289718] [ohm:60365:0]        ib_iface.c:1059 UCX  ERROR ibv_create_cq(cqe=256) failed: Connection timed out
[1741179628.291492] [ohm:60331:0]        ib_iface.c:1059 UCX  ERROR ibv_create_cq(cqe=256) failed: Connection timed out
[1741179628.291548] [ohm:60313:0]        ib_iface.c:1059 UCX  ERROR ibv_create_cq(cqe=256) failed: Connection timed out
[1741179628.292768] [ohm:60280:0]        ib_iface.c:1059 UCX  ERROR ibv_create_cq(cqe=256) failed: Connection timed out
[1741179628.293113] [ohm:60343:0]        ib_iface.c:1059 UCX  ERROR ibv_create_cq(cqe=256) failed: Connection timed out
[1741179628.294634] [ohm:60368:0]        ib_iface.c:1059 UCX  ERROR ibv_create_cq(cqe=256) failed: Connection timed out
[1741179628.294935] [ohm:60299:0]        ib_iface.c:1059 UCX  ERROR ibv_create_cq(cqe=256) failed: Connection timed out


           ************************************************************
           *        Program running with 64 parallel MPI-processes    *
           *              working on a common directory               *
           ************************************************************
------------------------------------------------------------------------------
                             ORCA STARTUP CALCULATIONS
                           -- RI-GTO INTEGRALS CHOSEN --
------------------------------------------------------------------------------
------------------------------------------------------------------------------
                   ___                                                        
                  /   \      - P O W E R E D   B Y -                         
                 /     \                                                     
                 |  |  |   _    _      __       _____    __    __             
                 |  |  |  | |  | |    /  \     |  _  \  |  |  /  |          
                  \  \/   | |  | |   /    \    | | | |  |  | /  /          
                 / \  \   | |__| |  /  /\  \   | |_| |  |  |/  /          
                |  |  |   |  __  | /  /__\  \  |    /   |      \           
                |  |  |   | |  | | |   __   |  |    \   |  |\   \          
                \     /   | |  | | |  |  |  |  | |\  \  |  | \   \       
                 \___/    |_|  |_| |__|  |__|  |_| \__\ |__|  \__/        
                                                                              
                      - O R C A' S   B I G   F R I E N D -                    
                                      &                                       
                       - I N T E G R A L  F E E D E R -                       
                                                                              
 v1 FN, 2020, v2 2021, v3 2022-2024                                           
------------------------------------------------------------------------------


----------------------
SHARK INTEGRAL PACKAGE
----------------------

Number of atoms                             ...     30
Number of basis functions                   ...    882
Number of shells                            ...    322
Maximum angular momentum                    ...      3
Integral batch strategy                     ... SHARK/LIBINT Hybrid
RI-J (if used) integral strategy            ... SPLIT-RIJ (Revised 2003 algorithm where possible)
Printlevel                                  ...      1
Contraction scheme used                     ... SEGMENTED contraction
Prescreening option                         ... SCHWARTZ
   Thresh                                   ... 2.500e-11
   Tcut                                     ... 2.500e-12
   Tpresel                                  ... 2.500e-12 
Coulomb Range Separation                    ... NOT USED
Exchange Range Separation                   ... Long Range
   Mu parameter                             ... 3.000e-01
   Scaling (regular/separated)              ... 1.500e-01 8.500e-01
Multipole approximations                    ... NOT USED
Finite Nucleus Model                        ... NOT USED
CABS basis                                  ... NOT available
Auxiliary Coulomb fitting basis             ... AVAILABLE
   # of basis functions in Aux-J            ...   1014
   # of shells in Aux-J                     ...    330
   Maximum angular momentum in Aux-J        ...      4
Auxiliary J/K fitting basis                 ... NOT available
Auxiliary Correlation fitting basis         ... NOT available
Auxiliary 'external' fitting basis          ... NOT available

Checking pre-screening integrals            ... done (  0.0 sec) Dimension = 322
Check shell pair data                       ... done (  0.0 sec)
Shell pair information
Shell pair cut-off parameter TPreSel        ...   2.5e-12
Total number of shell pairs                 ...     52003
Shell pairs after pre-screening             ...     45196
Total number of primitive shell pairs       ...    129718
Primitive shell pairs kept                  ...     84657
          la=0 lb=0:   8746 shell pairs
          la=1 lb=0:  11954 shell pairs
          la=1 lb=1:   4132 shell pairs
          la=2 lb=0:   8124 shell pairs
          la=2 lb=1:   5616 shell pairs
          la=2 lb=2:   1937 shell pairs
          la=3 lb=0:   2079 shell pairs
          la=3 lb=1:   1469 shell pairs
          la=3 lb=2:   1001 shell pairs
          la=3 lb=3:    138 shell pairs

Calculating one electron integrals          ... done (  0.2 sec)
Calculating RI/J V-Matrix + Cholesky decomp.... done (  0.1 sec)
Calculating Nuclear repulsion               ... done (  0.0 sec) ENN=   1453.929950105952 Eh

Diagonalization of the overlap matrix:
Smallest eigenvalue                        ... 4.642e-07
Time for diagonalization                   ...    0.126 sec
Threshold for overlap eigenvalues          ... 1.000e-07
Number of eigenvalues below threshold      ... 0

IMPORTANT:
Smallest eigenvalue of S below the DiffSThresh (1.000e-06) while
Thresh>1e-12 and/or TCut>1e-13! In order to avoid SCF convergence issues,
Thresh will be set to at least 1e-12 and TCut to at least 1e-13.
This can be turned off by adding %SCF DiffSThresh -1 END to the input.

Time for construction of square roots      ...    0.129 sec
Total time needed                          ...    0.270 sec

-------------------
DFT GRID GENERATION
-------------------

General Integration Accuracy     IntAcc      ... 4.388
Radial Grid Type                 RadialGrid  ... OptM3 with GC (2021)
Angular Grid (max. ang.)         AngularGrid ... 4 (Lebedev-302)
Angular grid pruning method      GridPruning ... 4 (adaptive)
Weight generation scheme         WeightScheme... mBecke (2022)
Basis function cutoff            BFCut       ... 1.0000e-11
Integration weight cutoff        WCut        ... 1.0000e-14
Partially contracted basis set               ... off
Rotationally invariant grid construction     ... off
Angular grids for H and He will be reduced by one unit
Diffuse basis detected: some atoms will have their outermost
                        angular grid increased by 1.

Total number of grid points                  ...   151733
Total number of batches                      ...     2387
Average number of points per batch           ...       63
Average number of grid points per atom       ...     5058

--------------------
COSX GRID GENERATION
--------------------

GRIDX 1
-------
General Integration Accuracy     IntAcc      ... 3.816
Radial Grid Type                 RadialGrid  ... OptM3 with GC (2021)
Angular Grid (max. ang.)         AngularGrid ... 1 (Lebedev-50)
Angular grid pruning method      GridPruning ... 4 (adaptive)
Weight generation scheme         WeightScheme... mBecke (2022)
Basis function cutoff            BFCut       ... 1.0000e-11
Integration weight cutoff        WCut        ... 1.0000e-14
Partially contracted basis set               ... on
Rotationally invariant grid construction     ... off
Angular grids for H and He will be reduced by one unit
Diffuse basis detected: some atoms will have their outermost
                        angular grid increased by 1.

Total number of grid points                  ...    19026
Total number of batches                      ...      166
Average number of points per batch           ...      114
Average number of grid points per atom       ...      634
UseSFitting                                  ... on

GRIDX 2
-------
General Integration Accuracy     IntAcc      ... 4.020
Radial Grid Type                 RadialGrid  ... OptM3 with GC (2021)
Angular Grid (max. ang.)         AngularGrid ... 2 (Lebedev-110)
Angular grid pruning method      GridPruning ... 4 (adaptive)
Weight generation scheme         WeightScheme... mBecke (2022)
Basis function cutoff            BFCut       ... 1.0000e-11
Integration weight cutoff        WCut        ... 1.0000e-14
Partially contracted basis set               ... on
Rotationally invariant grid construction     ... off
Angular grids for H and He will be reduced by one unit
Diffuse basis detected: some atoms will have their outermost
                        angular grid increased by 1.

Total number of grid points                  ...    45738
Total number of batches                      ...      371
Average number of points per batch           ...      123
Average number of grid points per atom       ...     1525
UseSFitting                                  ... on

GRIDX 3
-------
General Integration Accuracy     IntAcc      ... 4.338
Radial Grid Type                 RadialGrid  ... OptM3 with GC (2021)
Angular Grid (max. ang.)         AngularGrid ... 3 (Lebedev-194)
Angular grid pruning method      GridPruning ... 4 (adaptive)
Weight generation scheme         WeightScheme... mBecke (2022)
Basis function cutoff            BFCut       ... 1.0000e-11
Integration weight cutoff        WCut        ... 1.0000e-14
Partially contracted basis set               ... on
Rotationally invariant grid construction     ... off
Angular grids for H and He will be reduced by one unit
Diffuse basis detected: some atoms will have their outermost
                        angular grid increased by 1.

Total number of grid points                  ...   100689
Total number of batches                      ...      802
Average number of points per batch           ...      125
Average number of grid points per atom       ...     3356
UseSFitting                                  ... on
Initializing property integral containers    ... done (  0.0 sec)

SHARK setup successfully completed in   4.1 seconds

Maximum memory used throughout the entire STARTUP-calculation: 80.3 MB
[1741179634.327705] [ohm:60577:0]        ib_iface.c:1059 UCX  ERROR ibv_create_cq(cqe=256) failed: Connection timed out
[1741179634.340756] [ohm:60570:0]        ib_iface.c:1059 UCX  ERROR ibv_create_cq(cqe=256) failed: Connection timed out
[1741179634.342979] [ohm:60569:0]        ib_iface.c:1059 UCX  ERROR ibv_create_cq(cqe=256) failed: Connection timed out
[1741179634.343392] [ohm:60567:0]        ib_iface.c:1059 UCX  ERROR ibv_create_cq(cqe=256) failed: Connection timed out
[1741179634.355161] [ohm:60585:0]        ib_iface.c:1059 UCX  ERROR ibv_create_cq(cqe=256) failed: Connection timed out
[1741179634.363484] [ohm:60568:0]        ib_iface.c:1059 UCX  ERROR ibv_create_cq(cqe=256) failed: Connection timed out
[1741179634.364317] [ohm:60578:0]        ib_iface.c:1059 UCX  ERROR ibv_create_cq(cqe=256) failed: Connection timed out
[1741179634.370059] [ohm:60574:0]        ib_iface.c:1059 UCX  ERROR ibv_create_cq(cqe=256) failed: Connection timed out
[1741179634.405484] [ohm:60579:0]        ib_iface.c:1059 UCX  ERROR ibv_create_cq(cqe=256) failed: Connection timed out
[1741179634.409978] [ohm:60582:0]        ib_iface.c:1059 UCX  ERROR ibv_create_cq(cqe=256) failed: Connection timed out
[1741179634.411016] [ohm:60584:0]        ib_iface.c:1059 UCX  ERROR ibv_create_cq(cqe=256) failed: Connection timed out
[1741179634.416628] [ohm:60576:0]        ib_iface.c:1059 UCX  ERROR ibv_create_cq(cqe=256) failed: Connection timed out
[1741179634.417600] [ohm:60588:0]        ib_iface.c:1059 UCX  ERROR ibv_create_cq(cqe=256) failed: Connection timed out
[1741179634.442436] [ohm:60586:0]        ib_iface.c:1059 UCX  ERROR ibv_create_cq(cqe=256) failed: Connection timed out
[1741179634.443998] [ohm:60589:0]        ib_iface.c:1059 UCX  ERROR ibv_create_cq(cqe=256) failed: Connection timed out
[1741179634.451195] [ohm:60608:0]        ib_iface.c:1059 UCX  ERROR ibv_create_cq(cqe=256) failed: Connection timed out
[1741179634.512750] [ohm:60616:0]        ib_iface.c:1059 UCX  ERROR ibv_create_cq(cqe=256) failed: Connection timed out
[1741179634.516010] [ohm:60587:0]        ib_iface.c:1059 UCX  ERROR ibv_create_cq(cqe=256) failed: Connection timed out
[1741179634.517119] [ohm:60573:0]        ib_iface.c:1059 UCX  ERROR ibv_create_cq(cqe=256) failed: Connection timed out
[1741179634.517327] [ohm:60644:0]        ib_iface.c:1059 UCX  ERROR ibv_create_cq(cqe=256) failed: Connection timed out
[1741179634.524525] [ohm:60571:0]        ib_iface.c:1059 UCX  ERROR ibv_create_cq(cqe=256) failed: Connection timed out
[1741179634.529984] [ohm:60591:0]        ib_iface.c:1059 UCX  ERROR ibv_create_cq(cqe=256) failed: Connection timed out
[1741179634.530509] [ohm:60599:0]        ib_iface.c:1059 UCX  ERROR ibv_create_cq(cqe=256) failed: Connection timed out
[1741179634.573084] [ohm:60635:0]        ib_iface.c:1059 UCX  ERROR ibv_create_cq(cqe=256) failed: Connection timed out
[1741179634.584560] [ohm:60639:0]        ib_iface.c:1059 UCX  ERROR ibv_create_cq(cqe=256) failed: Connection timed out
[1741179634.585434] [ohm:60580:0]        ib_iface.c:1059 UCX  ERROR ibv_create_cq(cqe=256) failed: Connection timed out
[1741179634.589480] [ohm:60624:0]        ib_iface.c:1059 UCX  ERROR ibv_create_cq(cqe=256) failed: Connection timed out
[1741179634.591767] [ohm:60688:0]        ib_iface.c:1059 UCX  ERROR ibv_create_cq(cqe=256) failed: Connection timed out
[1741179634.591912] [ohm:60678:0]        ib_iface.c:1059 UCX  ERROR ibv_create_cq(cqe=256) failed: Connection timed out
[1741179634.596916] [ohm:60627:0]        ib_iface.c:1059 UCX  ERROR ibv_create_cq(cqe=256) failed: Connection timed out
[1741179634.605040] [ohm:60656:0]        ib_iface.c:1059 UCX  ERROR ibv_create_cq(cqe=256) failed: Connection timed out
[1741179634.607874] [ohm:60630:0]        ib_iface.c:1059 UCX  ERROR ibv_create_cq(cqe=256) failed: Connection timed out
[1741179634.612735] [ohm:60660:0]        ib_iface.c:1059 UCX  ERROR ibv_create_cq(cqe=256) failed: Connection timed out
[1741179634.619234] [ohm:60675:0]        ib_iface.c:1059 UCX  ERROR ibv_create_cq(cqe=256) failed: Connection timed out
[1741179634.619524] [ohm:60600:0]        ib_iface.c:1059 UCX  ERROR ibv_create_cq(cqe=256) failed: Connection timed out
[1741179634.622969] [ohm:60614:0]        ib_iface.c:1059 UCX  ERROR ibv_create_cq(cqe=256) failed: Connection timed out
[1741179634.638654] [ohm:60697:0]        ib_iface.c:1059 UCX  ERROR ibv_create_cq(cqe=256) failed: Connection timed out
[1741179634.641941] [ohm:60590:0]        ib_iface.c:1059 UCX  ERROR ibv_create_cq(cqe=256) failed: Connection timed out
[1741179634.644177] [ohm:60583:0]        ib_iface.c:1059 UCX  ERROR ibv_create_cq(cqe=256) failed: Connection timed out
[1741179634.648289] [ohm:60620:0]        ib_iface.c:1059 UCX  ERROR ibv_create_cq(cqe=256) failed: Connection timed out
[1741179634.650226] [ohm:60593:0]        ib_iface.c:1059 UCX  ERROR ibv_create_cq(cqe=256) failed: Connection timed out
[1741179634.654352] [ohm:60664:0]        ib_iface.c:1059 UCX  ERROR ibv_create_cq(cqe=256) failed: Connection timed out
[1741179634.664019] [ohm:60597:0]        ib_iface.c:1059 UCX  ERROR ibv_create_cq(cqe=256) failed: Connection timed out
[1741179634.666060] [ohm:60594:0]        ib_iface.c:1059 UCX  ERROR ibv_create_cq(cqe=256) failed: Connection timed out
[1741179634.670297] [ohm:60699:0]        ib_iface.c:1059 UCX  ERROR ibv_create_cq(cqe=256) failed: Connection timed out
[1741179634.671211] [ohm:60681:0]        ib_iface.c:1059 UCX  ERROR ibv_create_cq(cqe=256) failed: Connection timed out
[1741179634.672772] [ohm:60704:0]        ib_iface.c:1059 UCX  ERROR ibv_create_cq(cqe=256) failed: Connection timed out
[1741179634.684377] [ohm:60650:0]        ib_iface.c:1059 UCX  ERROR ibv_create_cq(cqe=256) failed: Connection timed out
[1741179634.685876] [ohm:60575:0]        ib_iface.c:1059 UCX  ERROR ibv_create_cq(cqe=256) failed: Connection timed out
[1741179634.688188] [ohm:60647:0]        ib_iface.c:1059 UCX  ERROR ibv_create_cq(cqe=256) failed: Connection timed out
[1741179634.690490] [ohm:60665:0]        ib_iface.c:1059 UCX  ERROR ibv_create_cq(cqe=256) failed: Connection timed out
[1741179634.693485] [ohm:60691:0]        ib_iface.c:1059 UCX  ERROR ibv_create_cq(cqe=256) failed: Connection timed out
[1741179634.702131] [ohm:60685:0]        ib_iface.c:1059 UCX  ERROR ibv_create_cq(cqe=256) failed: Connection timed out
[1741179634.702647] [ohm:60711:0]        ib_iface.c:1059 UCX  ERROR ibv_create_cq(cqe=256) failed: Connection timed out
[1741179634.704253] [ohm:60572:0]        ib_iface.c:1059 UCX  ERROR ibv_create_cq(cqe=256) failed: Connection timed out
[1741179634.704327] [ohm:60694:0]        ib_iface.c:1059 UCX  ERROR ibv_create_cq(cqe=256) failed: Connection timed out
[1741179634.705560] [ohm:60654:0]        ib_iface.c:1059 UCX  ERROR ibv_create_cq(cqe=256) failed: Connection timed out
[1741179634.706886] [ohm:60592:0]        ib_iface.c:1059 UCX  ERROR ibv_create_cq(cqe=256) failed: Connection timed out
[1741179634.707746] [ohm:60581:0]        ib_iface.c:1059 UCX  ERROR ibv_create_cq(cqe=256) failed: Connection timed out
[1741179634.709008] [ohm:60717:0]        ib_iface.c:1059 UCX  ERROR ibv_create_cq(cqe=256) failed: Connection timed out
[1741179634.709047] [ohm:60672:0]        ib_iface.c:1059 UCX  ERROR ibv_create_cq(cqe=256) failed: Connection timed out
[1741179634.710800] [ohm:60623:0]        ib_iface.c:1059 UCX  ERROR ibv_create_cq(cqe=256) failed: Connection timed out
[1741179634.711073] [ohm:60670:0]        ib_iface.c:1059 UCX  ERROR ibv_create_cq(cqe=256) failed: Connection timed out
[1741179634.711159] [ohm:60606:0]        ib_iface.c:1059 UCX  ERROR ibv_create_cq(cqe=256) failed: Connection timed out


           ************************************************************
           *        Program running with 64 parallel MPI-processes    *
           *              working on a common directory               *
           ************************************************************
-------------------------------------------------------------------------------
                                 ORCA GUESS
                   Start orbitals & Density for SCF / CASSCF
-------------------------------------------------------------------------------

------------
SCF SETTINGS
------------
Hamiltonian:
 Density Functional     Method          .... DFT(GTOs)
  Functional kind                       .... Exchange-Correlation
  Functional name                       .... wB97M-V exchange-correlation functional
  Functional family                     .... Hybrid MGGA
  Functional refs                              
    [ 0] N. Mardirossian and M. Head-Gordon.,  J. Chem. Phys. 144, 214110 (2016), doi: 10.1063/1.4952647
  Fraction of HF Exchange (short range) .... 0.1500
  Fraction of HF Exchange (long range)  .... 1.0000
  Range separation parameter mu         .... 0.3000
  Functional external parameters        .... 17
    Parameter  0 _cx00      =  8.500000e-01 : u^00 coefficient for exchange
    Parameter  1 _cx01      =  1.007000e+00 : u^01 coefficient for exchange
    Parameter  2 _cx10      =  2.590000e-01 : u^10 coefficient for exchange
    Parameter  3 _css00     =  4.430000e-01 : u^00 coefficient for same-spin correlation
    Parameter  4 _css04     = -1.437000e+00 : u^04 coefficient for same-spin correlation
    Parameter  5 _css10     = -4.535000e+00 : u^10 coefficient for same-spin correlation
    Parameter  6 _css20     = -3.390000e+00 : u^20 coefficient for same-spin correlation
    Parameter  7 _css43     =  4.278000e+00 : u^43 coefficient for same-spin correlation
    Parameter  8 _cos00     =  1.000000e+00 : u^00 coefficient for opposite-spin correlation
    Parameter  9 _cos10     =  1.358000e+00 : u^10 coefficient for opposite-spin correlation
    Parameter 10 _cos20     =  2.924000e+00 : u^20 coefficient for opposite-spin correlation
    Parameter 11 _cos21     = -8.812000e+00 : u^21 coefficient for opposite-spin correlation
    Parameter 12 _cos60     = -1.390000e+00 : u^60 coefficient for opposite-spin correlation
    Parameter 13 _cos61     =  9.142000e+00 : u^61 coefficient for opposite-spin correlation
    Parameter 14 _alpha     =  1.000000e+00 : fraction of HF exchange
    Parameter 15 _beta      = -8.500000e-01 : fraction of short-range exchange
    Parameter 16 _omega     =  3.000000e-01 : range-separation constant
 Long-range corrected/Screened/Range-Separated Hybrid DFT is turned on
   Amount of maximum screened exact exchange              ....  0.850000
   Range separation parameter mu (erf(mu*r12)/r12)        ....  0.300000
 RI-approximation to the Coulomb term is turned on
   Number of AuxJ basis functions       .... 1014
   RIJ-COSX (HFX calculated with COS-X)).... on


General Settings:
 Integral files         IntName         .... orca
 Hartree-Fock type      HFTyp           .... UHF
 Total Charge           Charge          ....    0
 Multiplicity           Mult            ....    3
 Number of Electrons    NEL             ....  132
 Basis Dimension        Dim             ....  882
 Nuclear Repulsion      ENuc            ....   1453.9299501060 Eh

Convergence Acceleration:
 AO-DIIS                CNVDIIS         .... on
   Start iteration      DIISMaxIt       ....    12
   Startup error        DIISStart       ....  0.200000
   # of expansion vecs  DIISMaxEq       ....     5
   Bias factor          DIISBfac        ....   1.050
   Max. coefficient     DIISMaxC        ....  10.000
 MO-DIIS                CNVKDIIS        .... off
 Trust-Rad. Augm. Hess. CNVTRAH         .... auto
   Auto Start mean grad. ratio tolernc. ....  1.125000
   Auto Start start iteration           ....    50
   Auto Start num. interpolation iter.  ....    10
   Max. Number of Micro iterations      ....    24
   Max. Number of Macro iterations      .... Maxiter - #DIIS iter
   Number of Davidson start vectors     ....     2
   Converg. threshold    (grad. norm)   ....   1.000e-05
   Grad. Scal. Fac. for Micro threshold ....   0.100
   Minimum threshold for Micro iter.    ....   1.000e-02
   NR start threshold (gradient norm)   ....   1.000e-04
   Initial trust radius                 ....   0.400
   Minimum AH scaling param. (alpha)    ....   1.000
   Maximum AH scaling param. (alpha)    .... 1000.000
   Quad. conv. algorithm                .... NR
   White noise on init. David. guess    .... on
   Maximum white noise                  ....   0.010
   Pseudo random numbers                .... off
   Inactive MOs                         .... canonical
   Orbital update algorithm             .... Taylor
   Preconditioner                       .... Diag
   Full preconditioner red. dimension   ....   250
 SOSCF                  CNVSOSCF        .... on
   Start iteration      SOSCFMaxIt      ....   150
   Startup grad/error   SOSCFStart      ....  0.003300
   Hessian update       SOSCFHessUp     .... L-BFGS
 Level Shifting         CNVShift        .... on
   Level shift para.    LevelShift      ....    0.2500
   Turn off err/grad.   ShiftErr        ....    0.0010
 Zerner damping         CNVZerner       .... off
 Static damping         CNVDamp         .... on
   Fraction old density DampFac         ....    0.7000
   Max. Damping (<1)    DampMax         ....    0.9800
   Min. Damping (>=0)   DampMin         ....    0.0000
   Turn off err/grad.   DampErr         ....    0.1000

SCF Procedure:
 Maximum # iterations   MaxIter         ....   125
 SCF integral mode      SCFMode         .... Direct
   Integral package                     .... SHARK and LIBINT hybrid scheme
 Reset frequency        DirectResetFreq ....    20
 Integral Threshold     Thresh          ....  1.000e-12 Eh
 Primitive CutOff       TCut            ....  1.000e-13 Eh

Convergence Tolerance:
 Convergence Check Mode ConvCheckMode   .... Total+1el-Energy
 Convergence forced     ConvForced      .... 1
 Energy Change          TolE            ....  1.000e-08 Eh
 1-El. energy change                    ....  1.000e-05 Eh
 Orbital Gradient       TolG            ....  1.000e-05
 Orbital Rotation angle TolX            ....  1.000e-05
 DIIS Error             TolErr          ....  5.000e-07

------------------------------
INITIAL GUESS: MODEL POTENTIAL
------------------------------
Loading Hartree-Fock densities                     ... done
Calculating cut-offs                               ... done
Initializing the effective Hamiltonian             ... done
Setting up the integral package (SHARK)            ... done
Starting the Coulomb interaction                   ... done (   0.1 sec)
Making the grid                                    ... done (   0.2 sec)
Mapping shells                                     ... done
Starting the XC term evaluation                    ... done (   0.1 sec)
  promolecular density results
     # of electrons  =    132.003667462
     EX              =   -113.584231632
     EC              =     -4.506411134
     EX+EC           =   -118.090642766
Transforming the Hamiltonian                       ... done (   0.1 sec)
Diagonalizing the Hamiltonian                      ... done (   0.1 sec)
Back transforming the eigenvectors                 ... done (   0.1 sec)
Now organizing SCF variables                       ... done
                      ------------------
                      INITIAL GUESS DONE (   1.1 sec)
                      ------------------
             **** ENERGY FILE WAS UPDATED (orca.en.tmp) ****
Finished Guess after   3.5 sec
Maximum memory used throughout the entire GUESS-calculation: 72.8 MB
[1741179638.461204] [ohm:60902:0]        ib_iface.c:1059 UCX  ERROR ibv_create_cq(cqe=256) failed: Connection timed out
[1741179638.470383] [ohm:60903:0]        ib_iface.c:1059 UCX  ERROR ibv_create_cq(cqe=256) failed: Connection timed out
[1741179638.481879] [ohm:60900:0]        ib_iface.c:1059 UCX  ERROR ibv_create_cq(cqe=256) failed: Connection timed out
[1741179638.527716] [ohm:60911:0]        ib_iface.c:1059 UCX  ERROR ibv_create_cq(cqe=256) failed: Connection timed out
[1741179638.535266] [ohm:60904:0]        ib_iface.c:1059 UCX  ERROR ibv_create_cq(cqe=256) failed: Connection timed out
[1741179638.540512] [ohm:60901:0]        ib_iface.c:1059 UCX  ERROR ibv_create_cq(cqe=256) failed: Connection timed out
[1741179638.547872] [ohm:60905:0]        ib_iface.c:1059 UCX  ERROR ibv_create_cq(cqe=256) failed: Connection timed out
[1741179638.598415] [ohm:60909:0]        ib_iface.c:1059 UCX  ERROR ibv_create_cq(cqe=256) failed: Connection timed out
[1741179638.614889] [ohm:60972:0]        ib_iface.c:1059 UCX  ERROR ibv_create_cq(cqe=256) failed: Connection timed out
[1741179638.617396] [ohm:60918:0]        ib_iface.c:1059 UCX  ERROR ibv_create_cq(cqe=256) failed: Connection timed out
[1741179638.630207] [ohm:60936:0]        ib_iface.c:1059 UCX  ERROR ibv_create_cq(cqe=256) failed: Connection timed out
[1741179638.630260] [ohm:60939:0]        ib_iface.c:1059 UCX  ERROR ibv_create_cq(cqe=256) failed: Connection timed out
[1741179638.632778] [ohm:60941:0]        ib_iface.c:1059 UCX  ERROR ibv_create_cq(cqe=256) failed: Connection timed out
[1741179638.650647] [ohm:60914:0]        ib_iface.c:1059 UCX  ERROR ibv_create_cq(cqe=256) failed: Connection timed out
[1741179638.653055] [ohm:60929:0]        ib_iface.c:1059 UCX  ERROR ibv_create_cq(cqe=256) failed: Connection timed out
[1741179638.660616] [ohm:60962:0]        ib_iface.c:1059 UCX  ERROR ibv_create_cq(cqe=256) failed: Connection timed out
[1741179638.669391] [ohm:60938:0]        ib_iface.c:1059 UCX  ERROR ibv_create_cq(cqe=256) failed: Connection timed out
[1741179638.672967] [ohm:60922:0]        ib_iface.c:1059 UCX  ERROR ibv_create_cq(cqe=256) failed: Connection timed out
[1741179638.692286] [ohm:60930:0]        ib_iface.c:1059 UCX  ERROR ibv_create_cq(cqe=256) failed: Connection timed out
[1741179638.697401] [ohm:60946:0]        ib_iface.c:1059 UCX  ERROR ibv_create_cq(cqe=256) failed: Connection timed out
[1741179638.715366] [ohm:60908:0]        ib_iface.c:1059 UCX  ERROR ibv_create_cq(cqe=256) failed: Connection timed out
[1741179638.725334] [ohm:60924:0]        ib_iface.c:1059 UCX  ERROR ibv_create_cq(cqe=256) failed: Connection timed out
[1741179638.725919] [ohm:60982:0]        ib_iface.c:1059 UCX  ERROR ibv_create_cq(cqe=256) failed: Connection timed out
[1741179638.726795] [ohm:60964:0]        ib_iface.c:1059 UCX  ERROR ibv_create_cq(cqe=256) failed: Connection timed out
[1741179638.728613] [ohm:61020:0]        ib_iface.c:1059 UCX  ERROR ibv_create_cq(cqe=256) failed: Connection timed out
[1741179638.730176] [ohm:61010:0]        ib_iface.c:1059 UCX  ERROR ibv_create_cq(cqe=256) failed: Connection timed out
[1741179638.731272] [ohm:60991:0]        ib_iface.c:1059 UCX  ERROR ibv_create_cq(cqe=256) failed: Connection timed out
[1741179638.747402] [ohm:61024:0]        ib_iface.c:1059 UCX  ERROR ibv_create_cq(cqe=256) failed: Connection timed out
[1741179638.748759] [ohm:60948:0]        ib_iface.c:1059 UCX  ERROR ibv_create_cq(cqe=256) failed: Connection timed out
[1741179638.752416] [ohm:60994:0]        ib_iface.c:1059 UCX  ERROR ibv_create_cq(cqe=256) failed: Connection timed out
[1741179638.754013] [ohm:60985:0]        ib_iface.c:1059 UCX  ERROR ibv_create_cq(cqe=256) failed: Connection timed out
[1741179638.755451] [ohm:61003:0]        ib_iface.c:1059 UCX  ERROR ibv_create_cq(cqe=256) failed: Connection timed out
[1741179638.759431] [ohm:61036:0]        ib_iface.c:1059 UCX  ERROR ibv_create_cq(cqe=256) failed: Connection timed out
[1741179638.762564] [ohm:61038:0]        ib_iface.c:1059 UCX  ERROR ibv_create_cq(cqe=256) failed: Connection timed out
[1741179638.763290] [ohm:60958:0]        ib_iface.c:1059 UCX  ERROR ibv_create_cq(cqe=256) failed: Connection timed out
[1741179638.766580] [ohm:61007:0]        ib_iface.c:1059 UCX  ERROR ibv_create_cq(cqe=256) failed: Connection timed out
[1741179638.774387] [ohm:61015:0]        ib_iface.c:1059 UCX  ERROR ibv_create_cq(cqe=256) failed: Connection timed out
[1741179638.780086] [ohm:60967:0]        ib_iface.c:1059 UCX  ERROR ibv_create_cq(cqe=256) failed: Connection timed out
[1741179638.784743] [ohm:60920:0]        ib_iface.c:1059 UCX  ERROR ibv_create_cq(cqe=256) failed: Connection timed out
[1741179638.794566] [ohm:61032:0]        ib_iface.c:1059 UCX  ERROR ibv_create_cq(cqe=256) failed: Connection timed out
[1741179638.799546] [ohm:60907:0]        ib_iface.c:1059 UCX  ERROR ibv_create_cq(cqe=256) failed: Connection timed out
[1741179638.806171] [ohm:60916:0]        ib_iface.c:1059 UCX  ERROR ibv_create_cq(cqe=256) failed: Connection timed out
[1741179638.810578] [ohm:61026:0]        ib_iface.c:1059 UCX  ERROR ibv_create_cq(cqe=256) failed: Connection timed out
[1741179638.815061] [ohm:60975:0]        ib_iface.c:1059 UCX  ERROR ibv_create_cq(cqe=256) failed: Connection timed out
[1741179638.816011] [ohm:61042:0]        ib_iface.c:1059 UCX  ERROR ibv_create_cq(cqe=256) failed: Connection timed out
[1741179638.817068] [ohm:60912:0]        ib_iface.c:1059 UCX  ERROR ibv_create_cq(cqe=256) failed: Connection timed out
[1741179638.817908] [ohm:60998:0]        ib_iface.c:1059 UCX  ERROR ibv_create_cq(cqe=256) failed: Connection timed out
[1741179638.822886] [ohm:60935:0]        ib_iface.c:1059 UCX  ERROR ibv_create_cq(cqe=256) failed: Connection timed out
[1741179638.823265] [ohm:60987:0]        ib_iface.c:1059 UCX  ERROR ibv_create_cq(cqe=256) failed: Connection timed out
[1741179638.833150] [ohm:60950:0]        ib_iface.c:1059 UCX  ERROR ibv_create_cq(cqe=256) failed: Connection timed out
[1741179638.834235] [ohm:60906:0]        ib_iface.c:1059 UCX  ERROR ibv_create_cq(cqe=256) failed: Connection timed out
[1741179638.835333] [ohm:61004:0]        ib_iface.c:1059 UCX  ERROR ibv_create_cq(cqe=256) failed: Connection timed out
[1741179638.836012] [ohm:61012:0]        ib_iface.c:1059 UCX  ERROR ibv_create_cq(cqe=256) failed: Connection timed out
[1741179638.836959] [ohm:60944:0]        ib_iface.c:1059 UCX  ERROR ibv_create_cq(cqe=256) failed: Connection timed out
[1741179638.837851] [ohm:61048:0]        ib_iface.c:1059 UCX  ERROR ibv_create_cq(cqe=256) failed: Connection timed out
[1741179638.841723] [ohm:60956:0]        ib_iface.c:1059 UCX  ERROR ibv_create_cq(cqe=256) failed: Connection timed out
[1741179638.843566] [ohm:61017:0]        ib_iface.c:1059 UCX  ERROR ibv_create_cq(cqe=256) failed: Connection timed out
[1741179638.845037] [ohm:60943:0]        ib_iface.c:1059 UCX  ERROR ibv_create_cq(cqe=256) failed: Connection timed out
[1741179638.845415] [ohm:61031:0]        ib_iface.c:1059 UCX  ERROR ibv_create_cq(cqe=256) failed: Connection timed out
[1741179638.845412] [ohm:60910:0]        ib_iface.c:1059 UCX  ERROR ibv_create_cq(cqe=256) failed: Connection timed out
[1741179638.846484] [ohm:60951:0]        ib_iface.c:1059 UCX  ERROR ibv_create_cq(cqe=256) failed: Connection timed out
[1741179638.847262] [ohm:60942:0]        ib_iface.c:1059 UCX  ERROR ibv_create_cq(cqe=256) failed: Connection timed out
[1741179638.848221] [ohm:60915:0]        ib_iface.c:1059 UCX  ERROR ibv_create_cq(cqe=256) failed: Connection timed out
[1741179638.848404] [ohm:60913:0]        ib_iface.c:1059 UCX  ERROR ibv_create_cq(cqe=256) failed: Connection timed out


           ************************************************************
           *        Program running with 64 parallel MPI-processes    *
           *              working on a common directory               *
           ************************************************************

-------------------------------------------------------------------------------------------
                                      ORCA LEAN-SCF
                              memory conserving SCF solver
-------------------------------------------------------------------------------------------

----------------------------------------D-I-I-S--------------------------------------------
Iteration    Energy (Eh)           Delta-E    RMSDP     MaxDP     DIISErr   Damp  Time(sec)
-------------------------------------------------------------------------------------------
               ***  Starting incremental Fock matrix formation  ***
    1    -908.1190166227404461     0.00e+00  1.70e-03  3.65e-01  1.51e-01  0.700   7.9
    2    -908.3835655081859386    -2.65e-01  1.36e-03  2.63e-01  7.09e-02  0.700   6.7
                               ***Turning on AO-DIIS***
    3    -908.5001917758734180    -1.17e-01  9.77e-04  1.73e-01  2.75e-02  0.700   5.8
    4    -908.5720468155880098    -7.19e-02  2.27e-03  3.53e-01  1.88e-02  0.000   5.7
    5    -908.7338689631103534    -1.62e-01  2.95e-04  8.69e-02  5.26e-03  0.000   5.9
                              *** Initializing SOSCF ***
---------------------------------------S-O-S-C-F--------------------------------------
Iteration    Energy (Eh)           Delta-E    RMSDP     MaxDP     MaxGrad    Time(sec)
--------------------------------------------------------------------------------------
    6    -908.7352430102835115    -1.37e-03  1.38e-04  3.75e-02  2.54e-03     6.5
               *** Restarting incremental Fock matrix formation ***
    7    -908.7359009018430243    -6.58e-04  2.77e-04  4.30e-02  5.28e-03     7.3
    8    -908.7363463470703664    -4.45e-04  2.85e-04  7.19e-02  2.86e-03     6.6
    9    -908.7365254831795482    -1.79e-04  1.54e-04  1.40e-02  1.04e-03    10.7
   10    -908.7366128240789749    -8.73e-05  3.40e-05  9.78e-03  5.12e-04    13.1
   11    -908.7366278310194048    -1.50e-05  1.21e-05  1.35e-03  2.12e-04    13.2
   12    -908.7366315682941149    -3.74e-06  9.21e-06  1.71e-03  1.95e-04    11.2
   13    -908.7366336510851852    -2.08e-06  5.96e-06  8.24e-04  5.33e-05    11.9
   14    -908.7366338331860334    -1.82e-07  1.68e-06  3.55e-04  3.16e-05    11.2
   15    -908.7366339227457956    -8.96e-08  1.43e-06  2.54e-04  1.16e-05    10.7
   16    -908.7366339336683723    -1.09e-08  1.32e-06  2.95e-04  4.76e-06     9.9
   17    -908.7366340036112433    -6.99e-08  1.63e-06  4.07e-04  4.20e-06     9.7
   18    -908.7366339603620418     4.32e-08  1.89e-06  3.23e-04  1.57e-06    10.8
                  *** Gradient check signals convergence ***

               *****************************************************
               *                     SUCCESS                       *
               *           SCF CONVERGED AFTER  18 CYCLES          *
               *****************************************************

Recomputing exchange energy using gridx3       ... done (   10.087 sec)
Old exchange energy                            :    -35.043797106 Eh
New exchange energy                            :    -35.043787815 Eh
Exchange energy change after final integration :      0.000009291 Eh
Total energy after final integration           :   -908.736624670 Eh
             **** ENERGY FILE WAS UPDATED (orca.en.tmp) ****

----------------
TOTAL SCF ENERGY
----------------

Total Energy       :       -908.73662466960525 Eh          -24727.98070 eV

Components:
Nuclear Repulsion  :       1453.92995010595200 Eh           39563.44531 eV
Electronic Energy  :      -2362.66658406631404 Eh          -64291.42627 eV
One Electron Energy:      -4124.95873763942836 Eh         -112245.83372 eV
Two Electron Energy:       1762.29215357311432 Eh           47954.40745 eV

Virial components:
Potential Energy   :      -1814.62643677497772 Eh          -49378.49570 eV
Kinetic Energy     :        905.88981210537236 Eh           24650.51500 eV
Virial Ratio       :          2.00314255942190

DFT components:
N(Alpha)           :       66.999966866900 electrons
N(Beta)            :       64.999983087574 electrons
N(Total)           :      131.999949954474 electrons
E(XC)              :      -86.291920036537 Eh       

---------------
SCF CONVERGENCE
---------------

  Last Energy change         ...   -4.3249e-08  Tolerance :   1.0000e-08
  Last MAX-Density change    ...    3.2271e-04  Tolerance :   1.0000e-07
  Last RMS-Density change    ...    1.8932e-06  Tolerance :   5.0000e-09
  Last DIIS Error            ...    2.5372e-03  Tolerance :   5.0000e-07
  Last Orbital Gradient      ...    1.5749e-06  Tolerance :   1.0000e-05
  Last Orbital Rotation      ...    7.2424e-06  Tolerance :   1.0000e-05


----------------------
UHF SPIN CONTAMINATION
----------------------

Warning: in a DFT calculation there is little theoretical justification to 
         calculate <S**2> as in Hartree-Fock theory. We will do it anyways
         but you should keep in mind that the values have only limited relevance

Expectation value of <S**2>     :     2.015568
Ideal value S*(S+1) for S=1.0   :     2.000000
Deviation                       :     0.015568

----------------
ORBITAL ENERGIES
----------------
                 SPIN UP ORBITALS
  NO   OCC          E(Eh)            E(eV) 
   0   1.0000     -19.332535      -526.0650 
   1   1.0000     -19.330005      -525.9962 
   2   1.0000     -19.323913      -525.8304 
   3   1.0000     -19.315212      -525.5936 
   4   1.0000     -14.573612      -396.5681 
   5   1.0000     -14.562818      -396.2744 
   6   1.0000     -14.561588      -396.2410 
   7   1.0000     -14.560434      -396.2096 
   8   1.0000     -10.506920      -285.9078 
   9   1.0000     -10.506559      -285.8980 
  10   1.0000     -10.476862      -285.0899 
  11   1.0000     -10.473216      -284.9907 
  12   1.0000     -10.444194      -284.2010 
  13   1.0000     -10.440707      -284.1061 
  14   1.0000     -10.423565      -283.6396 
  15   1.0000     -10.410394      -283.2812 
  16   1.0000     -10.381951      -282.5072 
  17   1.0000     -10.367206      -282.1060 
  18   1.0000      -1.236628       -33.6503 
  19   1.0000      -1.216941       -33.1147 
  20   1.0000      -1.188376       -32.3373 
  21   1.0000      -1.175790       -31.9949 
  22   1.0000      -1.120885       -30.5008 
  23   1.0000      -1.096888       -29.8478 
  24   1.0000      -1.069826       -29.1115 
  25   1.0000      -1.055849       -28.7311 
  26   1.0000      -0.988098       -26.8875 
  27   1.0000      -0.955052       -25.9883 
  28   1.0000      -0.895694       -24.3731 
  29   1.0000      -0.845002       -22.9937 
  30   1.0000      -0.835148       -22.7255 
  31   1.0000      -0.803880       -21.8747 
  32   1.0000      -0.788320       -21.4513 
  33   1.0000      -0.784030       -21.3346 
  34   1.0000      -0.704766       -19.1776 
  35   1.0000      -0.702167       -19.1069 
  36   1.0000      -0.692459       -18.8428 
  37   1.0000      -0.675583       -18.3836 
  38   1.0000      -0.657355       -17.8875 
  39   1.0000      -0.644928       -17.5494 
  40   1.0000      -0.621727       -16.9180 
  41   1.0000      -0.604314       -16.4442 
  42   1.0000      -0.593291       -16.1443 
  43   1.0000      -0.587621       -15.9900 
  44   1.0000      -0.578425       -15.7397 
  45   1.0000      -0.573961       -15.6183 
  46   1.0000      -0.567525       -15.4431 
  47   1.0000      -0.561728       -15.2854 
  48   1.0000      -0.556841       -15.1524 
  49   1.0000      -0.550143       -14.9702 
  50   1.0000      -0.546814       -14.8796 
  51   1.0000      -0.542032       -14.7494 
  52   1.0000      -0.530367       -14.4320 
  53   1.0000      -0.522278       -14.2119 
  54   1.0000      -0.505350       -13.7513 
  55   1.0000      -0.495843       -13.4926 
  56   1.0000      -0.492755       -13.4086 
  57   1.0000      -0.423683       -11.5290 
  58   1.0000      -0.419123       -11.4049 
  59   1.0000      -0.410636       -11.1740 
  60   1.0000      -0.404429       -11.0051 
  61   1.0000      -0.401215       -10.9176 
  62   1.0000      -0.392851       -10.6900 
  63   1.0000      -0.387934       -10.5562 
  64   1.0000      -0.380427       -10.3519 
  65   1.0000      -0.345197        -9.3933 
  66   1.0000      -0.325047        -8.8450 
  67   0.0000       0.006247         0.1700 
  68   0.0000       0.029097         0.7918 
  69   0.0000       0.031042         0.8447 
  70   0.0000       0.037012         1.0071 
  71   0.0000       0.053976         1.4688 
  72   0.0000       0.056549         1.5388 
  73   0.0000       0.060710         1.6520 
  74   0.0000       0.062087         1.6895 
  75   0.0000       0.065756         1.7893 
  76   0.0000       0.068757         1.8710 
  77   0.0000       0.072405         1.9702 

                 SPIN DOWN ORBITALS
  NO   OCC          E(Eh)            E(eV) 
   0   1.0000     -19.329869      -525.9925 
   1   1.0000     -19.327917      -525.9394 
   2   1.0000     -19.318772      -525.6905 
   3   1.0000     -19.315092      -525.5904 
   4   1.0000     -14.572878      -396.5482 
   5   1.0000     -14.562692      -396.2710 
   6   1.0000     -14.561606      -396.2414 
   7   1.0000     -14.559601      -396.1869 
   8   1.0000     -10.506972      -285.9092 
   9   1.0000     -10.506613      -285.8995 
  10   1.0000     -10.477772      -285.1147 
  11   1.0000     -10.474246      -285.0187 
  12   1.0000     -10.443801      -284.1903 
  13   1.0000     -10.440284      -284.0946 
  14   1.0000     -10.412270      -283.3323 
  15   1.0000     -10.399628      -282.9883 
  16   1.0000     -10.382515      -282.5226 
  17   1.0000     -10.367615      -282.1172 
  18   1.0000      -1.236152       -33.6374 
  19   1.0000      -1.212924       -33.0054 
  20   1.0000      -1.185054       -32.2469 
  21   1.0000      -1.169312       -31.8186 
  22   1.0000      -1.118069       -30.4242 
  23   1.0000      -1.094393       -29.7800 
  24   1.0000      -1.067375       -29.0448 
  25   1.0000      -1.053928       -28.6788 
  26   1.0000      -0.975126       -26.5345 
  27   1.0000      -0.937553       -25.5121 
  28   1.0000      -0.890094       -24.2207 
  29   1.0000      -0.839757       -22.8510 
  30   1.0000      -0.827256       -22.5108 
  31   1.0000      -0.799225       -21.7480 
  32   1.0000      -0.785856       -21.3842 
  33   1.0000      -0.782268       -21.2866 
  34   1.0000      -0.699306       -19.0291 
  35   1.0000      -0.697377       -18.9766 
  36   1.0000      -0.686895       -18.6914 
  37   1.0000      -0.667780       -18.1712 
  38   1.0000      -0.647218       -17.6117 
  39   1.0000      -0.641234       -17.4489 
  40   1.0000      -0.613328       -16.6895 
  41   1.0000      -0.599778       -16.3208 
  42   1.0000      -0.587074       -15.9751 
  43   1.0000      -0.581986       -15.8366 
  44   1.0000      -0.572520       -15.5791 
  45   1.0000      -0.569744       -15.5035 
  46   1.0000      -0.558283       -15.1917 
  47   1.0000      -0.553184       -15.0529 
  48   1.0000      -0.550943       -14.9919 
  49   1.0000      -0.541730       -14.7412 
  50   1.0000      -0.538145       -14.6437 
  51   1.0000      -0.535475       -14.5710 
  52   1.0000      -0.523063       -14.2333 
  53   1.0000      -0.514213       -13.9925 
  54   1.0000      -0.492862       -13.4115 
  55   1.0000      -0.489542       -13.3211 
  56   1.0000      -0.486944       -13.2504 
  57   1.0000      -0.421390       -11.4666 
  58   1.0000      -0.413666       -11.2564 
  59   1.0000      -0.401003       -10.9119 
  60   1.0000      -0.395920       -10.7735 
  61   1.0000      -0.387772       -10.5518 
  62   1.0000      -0.382731       -10.4146 
  63   1.0000      -0.381608       -10.3841 
  64   1.0000      -0.371926       -10.1206 
  65   0.0000      -0.062751        -1.7075 
  66   0.0000      -0.053859        -1.4656 
  67   0.0000       0.005787         0.1575 
  68   0.0000       0.029252         0.7960 
  69   0.0000       0.030752         0.8368 
  70   0.0000       0.036952         1.0055 
  71   0.0000       0.054123         1.4728 
  72   0.0000       0.057010         1.5513 
  73   0.0000       0.061353         1.6695 
  74   0.0000       0.063477         1.7273 
  75   0.0000       0.065717         1.7883 
*Only the first 10 virtual orbitals were printed.

                    ********************************
                    * MULLIKEN POPULATION ANALYSIS *
                    ********************************

--------------------------------------------
MULLIKEN ATOMIC CHARGES AND SPIN POPULATIONS
--------------------------------------------
   0 O :   -0.670021    0.177194
   1 O :   -0.717458    0.191618
   2 O :   -0.700179    0.005143
   3 O :   -0.590062    0.004849
   4 N :   -0.275021    0.023276
   5 N :   -0.269055    0.013072
   6 N :   -0.033349    0.036600
   7 N :    0.017561    0.034444
   8 C :   -0.178535    0.461426
   9 C :    0.192232    0.424888
  10 C :    0.126077    0.126828
  11 C :    0.394062    0.065145
  12 C :   -1.322377   -0.019669
  13 C :   -1.248143    0.052745
  14 C :    0.835371    0.136639
  15 C :    0.424932    0.135213
  16 C :    0.388533   -0.007272
  17 C :    0.361452    0.000214
  18 H :    0.435209    0.021790
  19 H :    0.634545    0.020017
  20 H :    0.256066    0.019197
  21 H :    0.343256    0.000477
  22 H :    0.369083    0.029825
  23 H :    0.378979    0.022537
  24 H :    0.266755   -0.001697
  25 H :    0.209500    0.027593
  26 H :    0.133873   -0.000041
  27 H :    0.047339    0.001824
  28 H :    0.124681   -0.001242
  29 H :    0.064697   -0.002632
Sum of atomic charges         :   -0.0000000
Sum of atomic spin populations:    2.0000000

-----------------------------------------------------
MULLIKEN REDUCED ORBITAL CHARGES AND SPIN POPULATIONS
-----------------------------------------------------
CHARGE
  0 O s       :     4.082931  s :     4.082931
      pz      :     1.557933  p :     4.558020
      px      :     1.445137
      py      :     1.554949
      dz2     :     0.004132  d :     0.027185
      dxz     :     0.006705
      dyz     :     0.006544
      dx2y2   :     0.004653
      dxy     :     0.005151
      f0      :     0.000218  f :     0.001886
      f+1     :     0.000464
      f-1     :     0.000118
      f+2     :     0.000401
      f-2     :     0.000384
      f+3     :     0.000155
      f-3     :     0.000147

  1 O s       :     4.112524  s :     4.112524
      pz      :     1.288164  p :     4.574255
      px      :     1.798704
      py      :     1.487388
      dz2     :     0.012515  d :     0.028971
[...]
[1741180158.058629] [ohm:63937:0]        ib_iface.c:1059 UCX  ERROR ibv_create_cq(cqe=256) failed: Connection timed out
[1741180158.060129] [ohm:63870:0]        ib_iface.c:1059 UCX  ERROR ibv_create_cq(cqe=256) failed: Connection timed out
[1741180158.060141] [ohm:63885:0]        ib_iface.c:1059 UCX  ERROR ibv_create_cq(cqe=256) failed: Connection timed out
[1741180158.060343] [ohm:63817:0]        ib_iface.c:1059 UCX  ERROR ibv_create_cq(cqe=256) failed: Connection timed out
[1741180158.064947] [ohm:63909:0]        ib_iface.c:1059 UCX  ERROR ibv_create_cq(cqe=256) failed: Connection timed out
[1741180158.065853] [ohm:63922:0]        ib_iface.c:1059 UCX  ERROR ibv_create_cq(cqe=256) failed: Connection timed out
[1741180158.066220] [ohm:63858:0]        ib_iface.c:1059 UCX  ERROR ibv_create_cq(cqe=256) failed: Connection timed out
[1741180158.067856] [ohm:63926:0]        ib_iface.c:1059 UCX  ERROR ibv_create_cq(cqe=256) failed: Connection timed out
[1741180158.067929] [ohm:63829:0]        ib_iface.c:1059 UCX  ERROR ibv_create_cq(cqe=256) failed: Connection timed out
[1741180158.067975] [ohm:63927:0]        ib_iface.c:1059 UCX  ERROR ibv_create_cq(cqe=256) failed: Connection timed out
[1741180158.071212] [ohm:63913:0]        ib_iface.c:1059 UCX  ERROR ibv_create_cq(cqe=256) failed: Connection timed out


           ************************************************************
           *        Program running with 64 parallel MPI-processes    *
           *              working on a common directory               *
           ************************************************************

------------------------------------------------------------------------------
                              ORCA PROPERTY CALCULATIONS
------------------------------------------------------------------------------

GBWName                                 ... orca.gbw
Number of atoms                         ...     30
Number of basis functions               ...    882
Max core memory                         ...   1024 MB

Electric properties:
Dipole moment                           ... YES
Quadrupole moment                       ...  NO
Static polarizability (Dipole/Dipole)   ...  NO
Static polarizability (Dipole/Quad.)    ...  NO
Static polarizability (Quad./Quad.)     ...  NO
Static polarizability (Velocity)        ...  NO

Atomic electric properties:
Dipole moment                           ...  NO
Quadrupole moment                       ...  NO
Static polarizability                   ...  NO

Choice of electric origin               ... Center of mass
Position of electric origin             ...    -0.012186    -0.084986    -0.043782

General magnetic properties:
Magnetizability                         ...  NO

EPR properties:
g-Tensor (aka g-matrix)                 ...  NO
Zero-Field splitting spin-orbit         ...  NO
Zero-field splitting spin-spin          ...  NO
Hyperfine couplings                     ...  NO (   0 nuclei)
Quadrupole couplings                    ...  NO (   0 nuclei)
Contact density                         ...  NO (   0 nuclei)

NMR properties:
Chemical shifts                         ...  NO (   0 nuclei)
Spin-rotation constants                 ...  NO (   0 nuclei)
Spin-spin couplings                     ...  NO (   0 nuclei,    0 pairs)

Choice of magnetic origin               ... GIAO
Position of magnetic origin             ...     0.000000     0.000000     0.000000

Properties with geometric perturbations:
SCF Hessian                             ...  NO
IR spectrum                             ...  NO
VCD spectrum                            ...  NO
X-ray spectroscopy properties:
SCF XES/XAS/RIXS spectra                ...  NO


-------------
DIPOLE MOMENT
-------------

Method             : SCF
Type of density    : Electron Density
Multiplicity       :   3
Irrep              :   0
Energy             :  -908.7366246696052485 Eh
Relativity type    : 
Basis              : AO
                                X                 Y                 Z
Electronic contribution:     -9.774465321      -6.634997936      -2.315118103
Nuclear contribution   :     11.461681425       7.803402841       4.462194643
                        -----------------------------------------
Total Dipole Moment    :      1.687216104       1.168404905       2.147076541
                        -----------------------------------------
Magnitude (a.u.)       :      2.970152500
Magnitude (Debye)      :      7.549527685



--------------------
Rotational spectrum 
--------------------
 
Rotational constants in cm-1:             0.022436             0.012882             0.012098 
Rotational constants in MHz :           672.617845           386.184243           362.679775 

Dipole components along the rotational axes: 
x,y,z [a.u.] :    -0.841387     1.648132     2.323259 
x,y,z [Debye]:    -2.138636     4.189219     5.905256 

 

-------------
DIPOLE MOMENT
-------------

Method             : TDA/CIS
Type of density    : Electron Density
Level              : Relaxed density
State              :   1
Multiplicity       :   3
Irrep              :   0
Energy             :     0.0000000000000000 Eh
Relativity type    : 
Basis              : AO
                                X                 Y                 Z
Electronic contribution:     -9.627338733      -6.658910339      -2.215461182
Nuclear contribution   :     11.461681425       7.803402841       4.462194643
                        -----------------------------------------
Total Dipole Moment    :      1.834342692       1.144492502       2.246733461
                        -----------------------------------------
Magnitude (a.u.)       :      3.118090352
Magnitude (Debye)      :      7.925555820



--------------------
Rotational spectrum 
--------------------
 
Rotational constants in cm-1:             0.022436             0.012882             0.012098 
Rotational constants in MHz :           672.617845           386.184243           362.679775 

Dipole components along the rotational axes: 
x,y,z [a.u.] :    -0.960354     1.662941     2.456590 
x,y,z [Debye]:    -2.441027     4.226861     6.244155 

 

Dipole moment calculation done in   0.2 sec 

Maximum memory used throughout the entire PROP-calculation: 81.8 MB
[1741180161.451328] [ohm:64151:0]        ib_iface.c:1059 UCX  ERROR ibv_create_cq(cqe=256) failed: Connection timed out
[1741180161.609358] [ohm:64154:0]        ib_iface.c:1059 UCX  ERROR ibv_create_cq(cqe=256) failed: Connection timed out
[1741180161.643958] [ohm:64180:0]        ib_iface.c:1059 UCX  ERROR ibv_create_cq(cqe=256) failed: Connection timed out
[1741180161.683052] [ohm:64162:0]        ib_iface.c:1059 UCX  ERROR ibv_create_cq(cqe=256) failed: Connection timed out
[1741180161.712881] [ohm:64177:0]        ib_iface.c:1059 UCX  ERROR ibv_create_cq(cqe=256) failed: Connection timed out
[1741180161.727841] [ohm:64153:0]        ib_iface.c:1059 UCX  ERROR ibv_create_cq(cqe=256) failed: Connection timed out
[1741180161.737070] [ohm:64167:0]        ib_iface.c:1059 UCX  ERROR ibv_create_cq(cqe=256) failed: Connection timed out
[1741180161.760848] [ohm:64160:0]        ib_iface.c:1059 UCX  ERROR ibv_create_cq(cqe=256) failed: Connection timed out
[1741180161.760959] [ohm:64169:0]        ib_iface.c:1059 UCX  ERROR ibv_create_cq(cqe=256) failed: Connection timed out
[1741180161.772117] [ohm:64152:0]        ib_iface.c:1059 UCX  ERROR ibv_create_cq(cqe=256) failed: Connection timed out
[1741180161.802973] [ohm:64193:0]        ib_iface.c:1059 UCX  ERROR ibv_create_cq(cqe=256) failed: Connection timed out
[1741180161.804770] [ohm:64161:0]        ib_iface.c:1059 UCX  ERROR ibv_create_cq(cqe=256) failed: Connection timed out
[1741180161.807793] [ohm:64195:0]        ib_iface.c:1059 UCX  ERROR ibv_create_cq(cqe=256) failed: Connection timed out
[1741180161.808775] [ohm:64165:0]        ib_iface.c:1059 UCX  ERROR ibv_create_cq(cqe=256) failed: Connection timed out
[1741180161.809786] [ohm:64166:0]        ib_iface.c:1059 UCX  ERROR ibv_create_cq(cqe=256) failed: Connection timed out
[1741180161.814562] [ohm:64155:0]        ib_iface.c:1059 UCX  ERROR ibv_create_cq(cqe=256) failed: Connection timed out
[1741180161.816402] [ohm:64157:0]        ib_iface.c:1059 UCX  ERROR ibv_create_cq(cqe=256) failed: Connection timed out
[1741180161.819436] [ohm:64156:0]        ib_iface.c:1059 UCX  ERROR ibv_create_cq(cqe=256) failed: Connection timed out
[1741180161.819546] [ohm:64190:0]        ib_iface.c:1059 UCX  ERROR ibv_create_cq(cqe=256) failed: Connection timed out
[1741180161.819715] [ohm:64182:0]        ib_iface.c:1059 UCX  ERROR ibv_create_cq(cqe=256) failed: Connection timed out
[1741180161.823008] [ohm:64197:0]        ib_iface.c:1059 UCX  ERROR ibv_create_cq(cqe=256) failed: Connection timed out
[1741180161.824653] [ohm:64150:0]        ib_iface.c:1059 UCX  ERROR ibv_create_cq(cqe=256) failed: Connection timed out
[1741180161.825022] [ohm:64159:0]        ib_iface.c:1059 UCX  ERROR ibv_create_cq(cqe=256) failed: Connection timed out
[1741180161.827434] [ohm:64158:0]        ib_iface.c:1059 UCX  ERROR ibv_create_cq(cqe=256) failed: Connection timed out
[1741180161.846267] [ohm:64232:0]        ib_iface.c:1059 UCX  ERROR ibv_create_cq(cqe=256) failed: Connection timed out
[1741180161.847440] [ohm:64173:0]        ib_iface.c:1059 UCX  ERROR ibv_create_cq(cqe=256) failed: Connection timed out
[1741180161.858129] [ohm:64202:0]        ib_iface.c:1059 UCX  ERROR ibv_create_cq(cqe=256) failed: Connection timed out
[1741180161.911941] [ohm:64205:0]        ib_iface.c:1059 UCX  ERROR ibv_create_cq(cqe=256) failed: Connection timed out
[1741180161.939474] [ohm:64203:0]        ib_iface.c:1059 UCX  ERROR ibv_create_cq(cqe=256) failed: Connection timed out
[1741180161.955595] [ohm:64229:0]        ib_iface.c:1059 UCX  ERROR ibv_create_cq(cqe=256) failed: Connection timed out
[1741180161.958788] [ohm:64234:0]        ib_iface.c:1059 UCX  ERROR ibv_create_cq(cqe=256) failed: Connection timed out
[1741180161.965749] [ohm:64241:0]        ib_iface.c:1059 UCX  ERROR ibv_create_cq(cqe=256) failed: Connection timed out
[1741180161.973645] [ohm:64253:0]        ib_iface.c:1059 UCX  ERROR ibv_create_cq(cqe=256) failed: Connection timed out
[1741180161.977675] [ohm:64251:0]        ib_iface.c:1059 UCX  ERROR ibv_create_cq(cqe=256) failed: Connection timed out
[1741180161.985652] [ohm:64186:0]        ib_iface.c:1059 UCX  ERROR ibv_create_cq(cqe=256) failed: Connection timed out
[1741180161.999366] [ohm:64201:0]        ib_iface.c:1059 UCX  ERROR ibv_create_cq(cqe=256) failed: Connection timed out
[1741180162.004057] [ohm:64227:0]        ib_iface.c:1059 UCX  ERROR ibv_create_cq(cqe=256) failed: Connection timed out
[1741180162.006633] [ohm:64276:0]        ib_iface.c:1059 UCX  ERROR ibv_create_cq(cqe=256) failed: Connection timed out
[1741180162.014426] [ohm:64230:0]        ib_iface.c:1059 UCX  ERROR ibv_create_cq(cqe=256) failed: Connection timed out
[1741180162.020171] [ohm:64301:0]        ib_iface.c:1059 UCX  ERROR ibv_create_cq(cqe=256) failed: Connection timed out
[1741180162.024452] [ohm:64207:0]        ib_iface.c:1059 UCX  ERROR ibv_create_cq(cqe=256) failed: Connection timed out
[1741180162.027421] [ohm:64198:0]        ib_iface.c:1059 UCX  ERROR ibv_create_cq(cqe=256) failed: Connection timed out
[1741180162.036623] [ohm:64223:0]        ib_iface.c:1059 UCX  ERROR ibv_create_cq(cqe=256) failed: Connection timed out
[1741180162.038640] [ohm:64239:0]        ib_iface.c:1059 UCX  ERROR ibv_create_cq(cqe=256) failed: Connection timed out
[1741180162.040791] [ohm:64238:0]        ib_iface.c:1059 UCX  ERROR ibv_create_cq(cqe=256) failed: Connection timed out
[1741180162.041374] [ohm:64168:0]        ib_iface.c:1059 UCX  ERROR ibv_create_cq(cqe=256) failed: Connection timed out
[1741180162.045229] [ohm:64243:0]        ib_iface.c:1059 UCX  ERROR ibv_create_cq(cqe=256) failed: Connection timed out
[1741180162.049161] [ohm:64213:0]        ib_iface.c:1059 UCX  ERROR ibv_create_cq(cqe=256) failed: Connection timed out
[1741180162.052683] [ohm:64224:0]        ib_iface.c:1059 UCX  ERROR ibv_create_cq(cqe=256) failed: Connection timed out
[1741180162.055175] [ohm:64249:0]        ib_iface.c:1059 UCX  ERROR ibv_create_cq(cqe=256) failed: Connection timed out
[1741180162.060187] [ohm:64299:0]        ib_iface.c:1059 UCX  ERROR ibv_create_cq(cqe=256) failed: Connection timed out
[1741180162.064539] [ohm:64310:0]        ib_iface.c:1059 UCX  ERROR ibv_create_cq(cqe=256) failed: Connection timed out
[1741180162.068656] [ohm:64209:0]        ib_iface.c:1059 UCX  ERROR ibv_create_cq(cqe=256) failed: Connection timed out
[1741180162.071211] [ohm:64215:0]        ib_iface.c:1059 UCX  ERROR ibv_create_cq(cqe=256) failed: Connection timed out
[1741180162.077002] [ohm:64293:0]        ib_iface.c:1059 UCX  ERROR ibv_create_cq(cqe=256) failed: Connection timed out
[1741180162.080068] [ohm:64217:0]        ib_iface.c:1059 UCX  ERROR ibv_create_cq(cqe=256) failed: Connection timed out
[1741180162.081073] [ohm:64262:0]        ib_iface.c:1059 UCX  ERROR ibv_create_cq(cqe=256) failed: Connection timed out
[1741180162.081593] [ohm:64222:0]        ib_iface.c:1059 UCX  ERROR ibv_create_cq(cqe=256) failed: Connection timed out
[1741180162.084344] [ohm:64295:0]        ib_iface.c:1059 UCX  ERROR ibv_create_cq(cqe=256) failed: Connection timed out
[1741180162.088474] [ohm:64290:0]        ib_iface.c:1059 UCX  ERROR ibv_create_cq(cqe=256) failed: Connection timed out
[1741180162.089805] [ohm:64285:0]        ib_iface.c:1059 UCX  ERROR ibv_create_cq(cqe=256) failed: Connection timed out
[1741180162.093087] [ohm:64305:0]        ib_iface.c:1059 UCX  ERROR ibv_create_cq(cqe=256) failed: Connection timed out
[1741180162.094398] [ohm:64196:0]        ib_iface.c:1059 UCX  ERROR ibv_create_cq(cqe=256) failed: Connection timed out
[1741180162.095460] [ohm:64257:0]        ib_iface.c:1059 UCX  ERROR ibv_create_cq(cqe=256) failed: Connection timed out

--------------------------------
SUGGESTED CITATIONS FOR THIS RUN
--------------------------------

Below you find a list of papers that are relevant to this ORCA run
We neither can nor want to force you to cite these papers, but we appreciate if you do
You receive ORCA, which is the product of decades of hard work by many enthusiastic individuals, for free
The only thing we kindly ask in return is that you cite our papers,
We deeply appreciate it, if you show your appreciation for ORCA by not just citing the generic ORCA reference.

Please note that relegating all ORCA citations to the supporting information does *not* help us.
SI sections are not indexed - citations you put there will not count into any citation statistics
But we need these citations in order to attract the funding resources that allow us to do what we are doing

Therefore, if you are a happy ORCA user, please consider citing a few of the papers listed below in the main body of your paper

In addition to the list printed below, the program has created the file orca.bibtex that contains the list in bibtex format
You can import this file easily into all common literature databanks and citation aid programs


List of essential papers. We consider these as the minimum necessary citations

  1. Neese,F.
     Software update: the ORCA program system, version 5.0
     WIRES Comput. Molec. Sci., 2022 12(1)e1606
     doi.org/10.1002/wcms.1606

List of papers to cite with high priority. The work reported in these papers was absolutely
necessary for this run to complete.
Our perspective: the developers of density functionals and basis sets usually get cited in chemistry papers
Good! But without the algorithms to do something with them, the functionals or basis sets would not do anything.
Hence, in our opinion, the algorithm design and method developments papers are equally worthy of getting cited

  1. Neese,F.; Olbrich,G.
     Efficient use of the resolution of the identity approximation in time-dependent density functional calculations with hybrid density functionals
     Chem. Phys. Lett., 2002 362 170-178
     doi.org/10.1016/s0009-2614(02)01053-9
  2. Neese,F.
     An improvement of the resolution of the identity approximation for the formation of the Coulomb matrix
     J. Comp. Chem., 2003 24(14)1740-1747
     doi.org/10.1002/jcc.10318
  3. Neese,F.; Wennmohs,F.; Hansen,A.; Becker,U.
     Efficient, approximate and parallel Hartree-Fock and hybrid DFT calculations. A 'chain-of-spheres' algorithm for the Hartree-Fock exchange
     Chem. Phys., 2009 356(1-3)98-109
     doi.org/10.1016/j.chemphys.2008.10.036
  4. Petrenko,T.; Kossmann,S.; Neese,F.
     Efficient time-dependent density functional theory approximations for hybrid density functionals: Analytical gradients and parallelization
     J. Chem. Phys., 2011 134 054116
     doi.org/10.1063/1.3533441
  5. Helmich-Paris,B.; de Souza,B.; Neese,F.; Izsák,R.
     An improved chain of spheres for exchange algorithm
     J. Chem. Phys., 2021 155 104109
     doi.org/doi: 10.1063/5.0058766.
  6. Neese,F.
     The SHARK Integral Generation and Digestion System
     J. Comp. Chem., 2022  1-16
     doi.org/10.1002/jcc.26942
  7. Lehtola,S.; Steigemann,C.; Oliveira,M.; Marques,M.
     Recent developments in Libxc - A comprehensive library of functionals for density functional theory
     Software X, 2018 7 
     doi.org/10.1016/j.softx.2017.11.002
  8. Grimme,S.; Antony,J.; Ehrlich,S.; Krieg,H.
     A consistent and accurate ab initio parametrization of density functional dispersion correction (DFT-D) for the 94 elements H-Pu
     J. Chem. Phys., 2010 132 154104-XXXX
     doi.org/10.1063/1.3382344
  9. Grimme,S.; Ehrlich,S.; Goerigk,L.
     Effect of the damping function in dispersion corrected density functional theory
     J. Comput. Chem., 2011 32(7)1456-1465
     doi.org/10.1002/jcc.21759

List of suggested additional citations. These are papers that are important in the 'surrounding' of 
of this run, or papers that preceded the highly important papers. If you like your results we are grateful for a citation.

  1. Izsak,R.; Neese,F.
     An overlap fitted chain of spheres exchange method
     J. Chem. Phys., 2011 135 144105
     doi.org/10.1063/1.3646921
  2. Izsak,R.; Hansen,A.; Neese,F.
     The resolution of identity and chain of spheres approximations for the LPNO-CCSD singles Fock term
     Molec. Phys., 2012 110 2413-2417
     doi.org/10.1080/00268976.2012.687466
  3. Neese,F.
     The ORCA program system
     WIRES Comput. Molec. Sci., 2012 2(1)73-78
     doi.org/10.1002/wcms.81
  4. Izsak,R.; Neese,F.; Klopper,W.
     Robust fitting techniques in the chain of spheres approximation to the Fock exchange: The role of the complementary space
     J. Chem. Phys., 2013 139 
     doi.org/10.1063/1.4819264
  5. Neese,F.
     Software update: the ORCA program system, version 4.0
     WIRES Comput. Molec. Sci., 2018 8(1)1-6
     doi.org/10.1002/wcms.1327
  6. Neese,F.; Wennmohs,F.; Becker,U.; Riplinger,C.
     The ORCA quantum chemistry program package
     J. Chem. Phys., 2020 152 Art. No. L224108
     doi.org/10.1063/5.0004608

List of optional additional citations

  1. Neese,F.
     Approximate second-order SCF convergence for spin unrestricted wavefunctions
     Chem. Phys. Lett., 2000 325(1-3)93-98
     doi.org/10.1016/s0009-2614(00)00662-x

Timings for individual modules:

Sum of individual times          ...      532.950 sec (=   8.883 min)
Startup calculation              ...        6.318 sec (=   0.105 min)   1.2 %
SCF iterations                   ...      192.349 sec (=   3.206 min)  36.1 %
Property integrals               ...        5.443 sec (=   0.091 min)   1.0 %
Property calculations            ...        4.079 sec (=   0.068 min)   0.8 %
CIS module                       ...      324.762 sec (=   5.413 min)  60.9 %
                             ****ORCA TERMINATED NORMALLY****
TOTAL RUN TIME: 0 days 0 hours 8 minutes 56 seconds 236 msec
