
                                 *****************
                                 * O   R   C   A *
                                 *****************

                                            #,                                       
                                            ###                                      
                                            ####                                     
                                            #####                                    
                                            ######                                   
                                           ########,                                 
                                     ,,################,,,,,                         
                               ,,#################################,,                 
                          ,,##########################################,,             
                       ,#########################################, ''#####,          
                    ,#############################################,,   '####,        
                  ,##################################################,,,,####,       
                ,###########''''           ''''###############################       
              ,#####''   ,,,,##########,,,,          '''####'''          '####       
            ,##' ,,,,###########################,,,                        '##       
           ' ,,###''''                  '''############,,,                           
         ,,##''                                '''############,,,,        ,,,,,,###''
      ,#''                                            '''#######################'''  
     '                                                          ''''####''''         
             ,#######,   #######,   ,#######,      ##                                
            ,#'     '#,  ##    ##  ,#'     '#,    #''#        ,####,   ,####,        
            ##       ##  ##   ,#'  ##            #'  '#       #'       #'  '#        
            ##       ##  #######   ##           ,######,      #####,   #    #        
            '#,     ,#'  ##    ##  '#,     ,#' ,#      #,     #,   #   #,  ,#        
             '#######'   ##     ##  '#######'  #'      '#     '####' # '####'        



                #########################################################
                #                        -***-                          #
                #          Department of theory and spectroscopy        #
                #                                                       #
                #                      Frank Neese                      #
                #                                                       #
                #     Directorship, Architecture, Infrastructure        #
                #                    SHARK, DRIVERS                     #
                #        Core code/Algorithms in most modules           #
                #                                                       #
                #        Max Planck Institute fuer Kohlenforschung      #
                #                Kaiser Wilhelm Platz 1                 #
                #                 D-45470 Muelheim/Ruhr                 #
                #                      Germany                          #
                #                                                       #
                #                  All rights reserved                  #
                #                        -***-                          #
                #########################################################


                         Program Version 6.0.0  -   RELEASE  -


 With contributions from (in alphabetic order):
   Daniel Aravena         : Magnetic Suceptibility
   Michael Atanasov       : Ab Initio Ligand Field Theory (pilot matlab implementation)
   Alexander A. Auer      : GIAO ZORA, VPT2 properties, NMR spectrum
   Ute Becker             : All parallelization in ORCA, NUMFREQ, NUMCALC
   Giovanni Bistoni       : ED, misc. LED, open-shell LED, HFLD
   Martin Brehm           : Molecular dynamics
   Dmytro Bykov           : pre 5.0 version of the SCF Hessian
   Marcos Casanova-Páez   : Triplet and SCS-CIS(D). UHF-(DLPNO)-IP/EA/STEOM-CCSD. UHF-CVS-IP/STEOM-CCSD
   Vijay G. Chilkuri      : MRCI spin determinant printing, contributions to CSF-ICE
   Pauline Colinet        : FMM embedding
   Dipayan Datta          : RHF DLPNO-CCSD density
   Achintya Kumar Dutta   : EOM-CC, STEOM-CC
   Nicolas Foglia         : Exact transition moments, OPA infrastructure, MCD improvements
   Dmitry Ganyushin       : Spin-Orbit,Spin-Spin,Magnetic field MRCI
   Miquel Garcia          : C-PCM and meta-GGA Hessian, CCSD/C-PCM, Gaussian charge scheme
   Tiago L. C. Gouveia    : GS-ROHF, GS-ROCIS
   Yang Guo               : DLPNO-NEVPT2, F12-NEVPT2, CIM, IAO-localization
   Andreas Hansen         : Spin unrestricted coupled pair/coupled cluster methods
   Ingolf Harden          : AUTO-CI MPn and infrastructure 
   Benjamin Helmich-Paris : MC-RPA, TRAH-(SCF,CASSCF), AVAS, COSX integrals, SCF dyn. polar.
   Lee Huntington         : MR-EOM, pCC
   Robert Izsak           : Overlap fitted RIJCOSX, COSX-SCS-MP3, EOM
   Riya Kayal             : Wick's Theorem for AUTO-CI, AUTO-CI UHF-CCSDT
   Emily Kempfer          : AUTO-CI, RHF CISDT and CCSDT
   Christian Kollmar      : KDIIS, OOCD, Brueckner-CCSD(T), CCSD density, CASPT2, CASPT2-K, improved NEVPT2
   Axel Koslowski         : Symmetry handling
   Simone Kossmann        : Meta GGA functionals, TD-DFT gradient, OOMP2, (MP2 Hessian; deprecated post 5.0)
   Lucas Lang             : DCDCAS
   Marvin Lechner         : AUTO-CI (C++ implementation), FIC-MRCC
   Spencer Leger          : CASSCF response
   Dagmar Lenk            : GEPOL surface, SMD, ORCA-2-JSON
   Dimitrios Liakos       : Extrapolation schemes; Compound Job, initial MDCI parallelization
   Dimitrios Manganas     : Further ROCIS development; embedding schemes. LFT, Crystal Embedding
   Dimitrios Pantazis     : SARC Basis sets
   Anastasios Papadopoulos: AUTO-CI, single reference methods and gradients
   Taras Petrenko         : pre 6.0 DFT Hessian and TD-DFT gradient, (ASA, deprecated), ECA, 1-Electron XAS/XES, NRVS
   Peter Pinski           : DLPNO-MP2, DLPNO-MP2 Gradient
   Christoph Reimann      : Effective Core Potentials
   Marius Retegan         : Local ZFS, SOC
   Christoph Riplinger    : Optimizer, TS searches, QM/MM, DLPNO-CCSD(T), (RO)-DLPNO pert. Triples
   Michael Roemelt        : Original ROCIS implementation
   Masaaki Saitow         : Open-shell DLPNO-CCSD energy and density
   Barbara Sandhoefer     : DKH picture change effects
   Kantharuban Sivalingam : CASSCF convergence/infrastructure, NEVPT2 and variants, FIC-MRCI
   Bernardo de Souza      : ESD, SOC TD-DFT
   Georgi Stoychev        : AutoAux, RI-MP2 NMR, DLPNO-MP2 response, X2C
   Van Anh Tran           : RI-MP2 g-tensors
   Willem Van den Heuvel  : Paramagnetic NMR
   Zikuan Wang            : NOTCH, Electric field optimization 
   Frank Wennmohs         : Technical directorship and infrastructure
   Hang Xu                : AUTO-CI-Response properties 


 We gratefully acknowledge several colleagues who have allowed us to
 interface, adapt or use parts of their codes:
   Stefan Grimme, W. Hujo, H. Kruse, P. Pracht,  : VdW corrections, initial TS optimization,
                  C. Bannwarth, S. Ehlert,         DFT functionals, gCP, sTDA/sTD-DF
                  L. Wittmann, M. Mueller
   Ed Valeev, F. Pavosevic, A. Kumar             : LibInt (2-el integral package), F12 methods
   Garnet Chan, S. Sharma, J. Yang, R. Olivares  : DMRG
   Ulf Ekstrom                                   : XCFun DFT Library
   Mihaly Kallay                                 : mrcc  (arbitrary order and MRCC methods)
   Frank Weinhold                                : gennbo (NPA and NBO analysis)
   Simon Mueller                                 : openCOSMO-RS
   Christopher J. Cramer and Donald G. Truhlar   : smd solvation model
   Lars Goerigk                                  : TD-DFT with DH, B97 family of functionals
   V. Asgeirsson, H. Jonsson                     : NEB implementation
   FAccTs GmbH                                   : IRC, NEB, NEB-TS, DLPNO-Multilevel, CI-OPT
                                                   MM, QMMM, 2- and 3-layer-ONIOM, Crystal-QMMM,
                                                   LR-CPCM, SF, NACMEs, symmetry and pop. for TD-DFT,
                                                   nearIR, NL-DFT gradient (VV10), updates on ESD,
                                                   ML-optimized integration grids, MBIS, APM,
                                                   GOAT, DOCKER, SOLVATOR, interface openCOSMO-RS
   S Lehtola, MJT Oliveira, MAL Marques          : LibXC Library
   Liviu Ungur et al                             : ANISO software


 Your calculation uses the libint2 library for the computation of 2-el integrals
 For citations please refer to: http://libint.valeyev.net

 Your ORCA version has been built with support for libXC version: 6.2.2
 For citations please refer to: https://libxc.gitlab.io

 This ORCA versions uses:
   CBLAS   interface :  Fast vector & matrix operations
   LAPACKE interface :  Fast linear algebra routines
   SCALAPACK package :  Parallel linear algebra routines
   Shared memory     :  Shared parallel matrices
   BLAS/LAPACK       :  OpenBLAS 0.3.27  USE64BITINT DYNAMIC_ARCH NO_AFFINITY Zen SINGLE_THREADED
        Core in use  :  Zen
   Copyright (c) 2011-2014, The OpenBLAS Project


Your calculation utilizes the atom-pairwise dispersion correction
with the Becke-Johnson damping scheme (D3BJ)


Warning: RI is on but no J-basis has been assigned. Assigning Def2/J (nothing to worry about!)
================================================================================

----- Orbital basis set information -----
Your calculation utilizes the basis: def2-TZVPPD
   F. Weigend and R. Ahlrichs, Phys. Chem. Chem. Phys. 7, 3297 (2005).
   D. Rappoport and F. Furche, J. Chem. Phys. 133, 134105 (2010)
   D. Rappoport, J. Chem. Phys. 155, 124102 (2021).

----- AuxJ basis set information -----
Your calculation utilizes the auxiliary basis: def2/J
   F. Weigend, Phys. Chem. Chem. Phys. 8, 1057 (2006).

================================================================================
                                        WARNINGS
                       Please study these warnings very carefully!
================================================================================

Using LibXC functional ID 531 : wB97M-V exchange-correlation functional
[ 1]  N. Mardirossian and M. Head-Gordon.,  J. Chem. Phys. 144, 214110 (2016)
Using LibXC functional ID 531 : wB97M-V exchange-correlation functional
[ 1]  N. Mardirossian and M. Head-Gordon.,  J. Chem. Phys. 144, 214110 (2016)

WARNING: B97M-V or wB97M-V functional requested.
  ===> : libXC variant has now been activated.
         Any manually given DFX/HFX/RangeSep scaling parameters are IGNORED!

Your calculation utilizes LibXC
 by S Lehtola, C Steigemann, MJT Oliveira & MAL Marques
Please cite in your paper:
 S Lehtola, C Steigemann, MJT Oliveira & MAL Marques, SoftwareX, 7, (2018), 1.
   


WARNING: your system is open-shell and RHF/RKS was chosen
  ===> : WILL SWITCH to UHF/UKS

INFO   : Checking CIS options ...

WARNING: CIS/ROCIS methods need fully converged wavefunctions
  ===> : Setting SCFConvForced true
         You can overwrite this default with %scf ConvForced false 


================================================================================
                                       INPUT FILE
================================================================================
NAME = orca.inp
|  1> ! Engrad def2-TZVPPD wB97M-D3BJ 
|  2> %pal nprocs 8 end%pal nprocs 64 end 
|  3> %tddft 
|  4>  Iroot 1 Nroots 3 
|  5> sf true 
|  6> end 
|  7> *xyz 0 3 
|  8> O   2.4164366 -0.45205749 -2.2962133
|  9> O   -1.7151232 1.7198337 -1.67560216
| 10> O   -1.45109406 -2.43243357 -0.94345916
| 11> O   -2.84803944 0.59501321 2.58732767
| 12> N   0.10228735 -1.82084864 0.64630355
| 13> N   -0.68974237 0.75280569 2.1418841
| 14> N   0.55556877 -1.58558487 -1.56181346
| 15> N   -2.18320802 0.65851521 0.30236987
| 16> C   2.16461073 -0.65679204 0.00323545
| 17> C   0.01206307 1.26301172 -0.14872851
| 18> C   1.0613475 -0.81507482 1.01566408
| 19> C   0.41594185 0.70471584 1.19127305
| 20> C   3.40959689 0.2072815 0.36939882
| 21> C   1.02459641 1.98691133 -0.98868106
| 22> C   1.75864337 -0.93319059 -1.35472226
| 23> C   -1.35808283 1.25213782 -0.62452766
| 24> C   -0.36943853 -2.00052064 -0.60924725
| 25> C   -1.99567547 0.63577167 1.70226444
| 26> H   1.29103807 -0.87624619 2.09828909
| 27> H   1.30658636 1.31994314 1.48463342
| 28> H   3.82353027 0.68572976 -0.49689542
| 29> H   3.11890768 1.0732098 0.93083321
| 30> H   4.03252914 -0.49289775 0.97123307
| 31> H   0.68595037 3.03416266 -1.0347633
| 32> H   2.03013628 1.96294888 -0.65227083
| 33> H   1.01487168 1.66558744 -2.02214425
| 34> H   -0.48593293 -2.13106167 1.37442771
| 35> H   -0.67700189 1.11960493 3.0892058
| 36> H   0.32621696 -1.7870006 -2.57116853
| 37> H   -3.11272805 0.38376212 0.03183894
| 38> *
| 39> 
| 40>                          ****END OF INPUT****
================================================================================

                     *******************************
                     * Energy+Gradient Calculation *
                     *******************************

---------------------------------
CARTESIAN COORDINATES (ANGSTROEM)
---------------------------------
  O      2.416437   -0.452057   -2.296213
  O     -1.715123    1.719834   -1.675602
  O     -1.451094   -2.432434   -0.943459
  O     -2.848039    0.595013    2.587328
  N      0.102287   -1.820849    0.646304
  N     -0.689742    0.752806    2.141884
  N      0.555569   -1.585585   -1.561813
  N     -2.183208    0.658515    0.302370
  C      2.164611   -0.656792    0.003235
  C      0.012063    1.263012   -0.148729
  C      1.061347   -0.815075    1.015664
  C      0.415942    0.704716    1.191273
  C      3.409597    0.207281    0.369399
  C      1.024596    1.986911   -0.988681
  C      1.758643   -0.933191   -1.354722
  C     -1.358083    1.252138   -0.624528
  C     -0.369439   -2.000521   -0.609247
  C     -1.995675    0.635772    1.702264
  H      1.291038   -0.876246    2.098289
  H      1.306586    1.319943    1.484633
  H      3.823530    0.685730   -0.496895
  H      3.118908    1.073210    0.930833
  H      4.032529   -0.492898    0.971233
  H      0.685950    3.034163   -1.034763
  H      2.030136    1.962949   -0.652271
  H      1.014872    1.665587   -2.022144
  H     -0.485933   -2.131062    1.374428
  H     -0.677002    1.119605    3.089206
  H      0.326217   -1.787001   -2.571169
  H     -3.112728    0.383762    0.031839

----------------------------
CARTESIAN COORDINATES (A.U.)
----------------------------
  NO LB      ZA    FRAG     MASS         X           Y           Z
   0 O     8.0000    0    15.999    4.566403   -0.854265   -4.339214
   1 O     8.0000    0    15.999   -3.241113    3.250015   -3.166429
   2 O     8.0000    0    15.999   -2.742170   -4.596633   -1.782879
   3 O     8.0000    0    15.999   -5.382015    1.124412    4.889341
   4 N     7.0000    0    14.007    0.193295   -3.440905    1.221337
   5 N     7.0000    0    14.007   -1.303424    1.422597    4.047574
   6 N     7.0000    0    14.007    1.049873   -2.996321   -2.951400
   7 N     7.0000    0    14.007   -4.125665    1.244413    0.571396
   8 C     6.0000    0    12.011    4.090521   -1.241157    0.006114
   9 C     6.0000    0    12.011    0.022796    2.386746   -0.281056
  10 C     6.0000    0    12.011    2.005656   -1.540268    1.919327
  11 C     6.0000    0    12.011    0.786016    1.331720    2.251180
  12 C     6.0000    0    12.011    6.443204    0.391705    0.698063
  13 C     6.0000    0    12.011    1.936207    3.754718   -1.868336
  14 C     6.0000    0    12.011    3.323354   -1.763475   -2.560054
  15 C     6.0000    0    12.011   -2.566405    2.366198   -1.180186
  16 C     6.0000    0    12.011   -0.698138   -3.780436   -1.151310
  17 C     6.0000    0    12.011   -3.771280    1.201434    3.216814
  18 H     1.0000    0     1.008    2.439708   -1.655865    3.965192
  19 H     1.0000    0     1.008    2.469090    2.494331    2.805551
  20 H     1.0000    0     1.008    7.225425    1.295841   -0.938996
  21 H     1.0000    0     1.008    5.893881    2.028073    1.759020
  22 H     1.0000    0     1.008    7.620376   -0.931442    1.835365
  23 H     1.0000    0     1.008    1.296258    5.733736   -1.955419
  24 H     1.0000    0     1.008    3.836402    3.709436   -1.232613
  25 H     1.0000    0     1.008    1.917830    3.147504   -3.821299
  26 H     1.0000    0     1.008   -0.918280   -4.027123    2.597292
  27 H     1.0000    0     1.008   -1.279348    2.115747    5.837753
  28 H     1.0000    0     1.008    0.616461   -3.376942   -4.858804
  29 H     1.0000    0     1.008   -5.882204    0.725205    0.060167

--------------------------------
INTERNAL COORDINATES (ANGSTROEM)
--------------------------------
 O      0   0   0     0.000000000000     0.00000000     0.00000000
 O      1   0   0     4.708721260519     0.00000000     0.00000000
 O      2   1   0     4.224579060774    60.96462921     0.00000000
 O      2   1   3     4.552064485163   103.16919800    54.01720539
 N      3   2   1     2.305292911030    84.31106702    60.67567386
 N      4   2   1     2.209426324449    63.28374541    30.63940322
 N      3   2   1     2.264113617804    68.92628864     1.26130324
 N      2   1   3     2.293005383202    94.54935163    43.69538288
 C      1   2   3     2.322239664342    79.33939108   293.40180417
 C      8   2   1     2.321232633243    61.23420817    37.08001788
 C      5   3   2     1.437986282771   144.30170622   333.74939194
 C      6   4   2     1.458941944154   150.38197297   334.91936128
 C      9   1   2     1.559066783255    95.57212558   243.78677179
 C     10   8   2     1.501590721942   150.68816695     9.14671856
 C      1   2   3     1.245225430093    67.36021255   325.44845302
 C      2   1   3     1.204564181158    71.08543560    61.54896798
 C      3   2   1     1.211703373548    75.71425183    34.02127339
 C      4   2   1     1.229439917407    31.25079276    12.51710696
 H     11   5   3     1.108411749636   110.51737091   160.11862025
 H     12   6   4     1.121522438717   114.41451191   153.53822580
 H     13   9   1     1.072715848131   111.44849202     8.43958723
 H     13   9   1     1.072166317241   110.73801374   118.37299860
 H     13   9   1     1.113777372141   103.00976387   238.41097987
 H     14  10   8     1.101607943616   105.92693282    54.36088071
 H     14  10   8     1.060592509882   116.80688901   175.97932370
 H     14  10   8     1.082307616966   112.64036750   301.47388265
 H      5   3   2     0.986103450030    91.36349231   113.85037299
 H      6   4   2     1.015934252590    81.37545705   143.89028682
 H      7   3   2     1.054499030998    89.84013946   269.55458431
 H      8   2   1     1.006321882264    94.76275888   229.70109110

---------------------------
INTERNAL COORDINATES (A.U.)
---------------------------
 O      0   0   0     0.000000000000     0.00000000     0.00000000
 O      1   0   0     8.898193623354     0.00000000     0.00000000
 O      2   1   0     7.983297455961    60.96462921     0.00000000
 O      2   1   3     8.602155220908   103.16919800    54.01720539
 N      3   2   1     4.356372260316    84.31106702    60.67567386
 N      4   2   1     4.175210666285    63.28374541    30.63940322
 N      3   2   1     4.278554673730    68.92628864     1.26130324
 N      2   1   3     4.333152197859    94.54935163    43.69538288
 C      1   2   3     4.388396982935    79.33939108   293.40180417
 C      8   2   1     4.386493969949    61.23420817    37.08001788
 C      5   3   2     2.717400258772   144.30170622   333.74939194
 C      6   4   2     2.757000719742   150.38197297   334.91936128
 C      9   1   2     2.946209244846    95.57212558   243.78677179
 C     10   8   2     2.837595229707   150.68816695     9.14671856
 C      1   2   3     2.353135037870    67.36021255   325.44845302
 C      2   1   3     2.276296413120    71.08543560    61.54896798
 C      3   2   1     2.289787531553    75.71425183    34.02127339
 C      4   2   1     2.323304742010    31.25079276    12.51710696
 H     11   5   3     2.094594650433   110.51737091   160.11862025
 H     12   6   4     2.119370262222   114.41451191   153.53822580
 H     13   9   1     2.027139172486   111.44849202     8.43958723
 H     13   9   1     2.026100709600   110.73801374   118.37299860
 H     13   9   1     2.104734207505   103.00976387   238.41097987
 H     14  10   8     2.081737320386   105.92693282    54.36088071
 H     14  10   8     2.004229383366   116.80688901   175.97932370
 H     14  10   8     2.045264988723   112.64036750   301.47388265
 H      5   3   2     1.863465460271    91.36349231   113.85037299
 H      6   4   2     1.919837507466    81.37545705   143.89028682
 H      7   3   2     1.992714377072    89.84013946   269.55458431
 H      8   2   1     1.901672760050    94.76275888   229.70109110

---------------------
BASIS SET INFORMATION
---------------------
There are 4 groups of distinct atoms

 Group   1 Type O   : 12s7p3d1f contracted to 6s4p3d1f pattern {621111/4111/111/1}
 Group   2 Type N   : 12s6p3d1f contracted to 6s3p3d1f pattern {621111/411/111/1}
 Group   3 Type C   : 12s6p3d1f contracted to 6s3p3d1f pattern {621111/411/111/1}
 Group   4 Type H   : 5s3p1d contracted to 3s3p1d pattern {311/111/1}

Atom   0O    basis set group =>   1
Atom   1O    basis set group =>   1
Atom   2O    basis set group =>   1
Atom   3O    basis set group =>   1
Atom   4N    basis set group =>   2
Atom   5N    basis set group =>   2
Atom   6N    basis set group =>   2
Atom   7N    basis set group =>   2
Atom   8C    basis set group =>   3
Atom   9C    basis set group =>   3
Atom  10C    basis set group =>   3
Atom  11C    basis set group =>   3
Atom  12C    basis set group =>   3
Atom  13C    basis set group =>   3
Atom  14C    basis set group =>   3
Atom  15C    basis set group =>   3
Atom  16C    basis set group =>   3
Atom  17C    basis set group =>   3
Atom  18H    basis set group =>   4
Atom  19H    basis set group =>   4
Atom  20H    basis set group =>   4
Atom  21H    basis set group =>   4
Atom  22H    basis set group =>   4
Atom  23H    basis set group =>   4
Atom  24H    basis set group =>   4
Atom  25H    basis set group =>   4
Atom  26H    basis set group =>   4
Atom  27H    basis set group =>   4
Atom  28H    basis set group =>   4
Atom  29H    basis set group =>   4
---------------------------------
AUXILIARY/J BASIS SET INFORMATION
---------------------------------
There are 4 groups of distinct atoms

 Group   1 Type O   : 12s5p4d2f1g contracted to 6s4p3d1f1g pattern {711111/2111/211/2/1}
 Group   2 Type N   : 12s5p4d2f1g contracted to 6s4p3d1f1g pattern {711111/2111/211/2/1}
 Group   3 Type C   : 12s5p4d2f1g contracted to 6s4p3d1f1g pattern {711111/2111/211/2/1}
 Group   4 Type H   : 5s2p1d contracted to 3s1p1d pattern {311/2/1}

Atom   0O    basis set group =>   1
Atom   1O    basis set group =>   1
Atom   2O    basis set group =>   1
Atom   3O    basis set group =>   1
Atom   4N    basis set group =>   2
Atom   5N    basis set group =>   2
Atom   6N    basis set group =>   2
Atom   7N    basis set group =>   2
Atom   8C    basis set group =>   3
Atom   9C    basis set group =>   3
Atom  10C    basis set group =>   3
Atom  11C    basis set group =>   3
Atom  12C    basis set group =>   3
Atom  13C    basis set group =>   3
Atom  14C    basis set group =>   3
Atom  15C    basis set group =>   3
Atom  16C    basis set group =>   3
Atom  17C    basis set group =>   3
Atom  18H    basis set group =>   4
Atom  19H    basis set group =>   4
Atom  20H    basis set group =>   4
Atom  21H    basis set group =>   4
Atom  22H    basis set group =>   4
Atom  23H    basis set group =>   4
Atom  24H    basis set group =>   4
Atom  25H    basis set group =>   4
Atom  26H    basis set group =>   4
Atom  27H    basis set group =>   4
Atom  28H    basis set group =>   4
Atom  29H    basis set group =>   4
[1741111389.157748] [ohm:919912:0]        ib_iface.c:1059 UCX  ERROR ibv_create_cq(cqe=256) failed: Connection timed out
[1741111389.213493] [ohm:919916:0]        ib_iface.c:1059 UCX  ERROR ibv_create_cq(cqe=256) failed: Connection timed out
[1741111389.215464] [ohm:919917:0]        ib_iface.c:1059 UCX  ERROR ibv_create_cq(cqe=256) failed: Connection timed out
[1741111389.218780] [ohm:919932:0]        ib_iface.c:1059 UCX  ERROR ibv_create_cq(cqe=256) failed: Connection timed out
[1741111389.222053] [ohm:919911:0]        ib_iface.c:1059 UCX  ERROR ibv_create_cq(cqe=256) failed: Connection timed out
[1741111389.223295] [ohm:919926:0]        ib_iface.c:1059 UCX  ERROR ibv_create_cq(cqe=256) failed: Connection timed out
[1741111389.225799] [ohm:919914:0]        ib_iface.c:1059 UCX  ERROR ibv_create_cq(cqe=256) failed: Connection timed out
[1741111389.235525] [ohm:919915:0]        ib_iface.c:1059 UCX  ERROR ibv_create_cq(cqe=256) failed: Connection timed out
[1741111389.239186] [ohm:919920:0]        ib_iface.c:1059 UCX  ERROR ibv_create_cq(cqe=256) failed: Connection timed out
[1741111389.240070] [ohm:919922:0]        ib_iface.c:1059 UCX  ERROR ibv_create_cq(cqe=256) failed: Connection timed out
[1741111389.240129] [ohm:919921:0]        ib_iface.c:1059 UCX  ERROR ibv_create_cq(cqe=256) failed: Connection timed out
[1741111389.245003] [ohm:919930:0]        ib_iface.c:1059 UCX  ERROR ibv_create_cq(cqe=256) failed: Connection timed out
[1741111389.245831] [ohm:919918:0]        ib_iface.c:1059 UCX  ERROR ibv_create_cq(cqe=256) failed: Connection timed out
[1741111389.271633] [ohm:919923:0]        ib_iface.c:1059 UCX  ERROR ibv_create_cq(cqe=256) failed: Connection timed out
[1741111389.275521] [ohm:919924:0]        ib_iface.c:1059 UCX  ERROR ibv_create_cq(cqe=256) failed: Connection timed out
[1741111389.276738] [ohm:919939:0]        ib_iface.c:1059 UCX  ERROR ibv_create_cq(cqe=256) failed: Connection timed out
[1741111389.286382] [ohm:919928:0]        ib_iface.c:1059 UCX  ERROR ibv_create_cq(cqe=256) failed: Connection timed out
[1741111389.287846] [ohm:919942:0]        ib_iface.c:1059 UCX  ERROR ibv_create_cq(cqe=256) failed: Connection timed out
[1741111389.291170] [ohm:919929:0]        ib_iface.c:1059 UCX  ERROR ibv_create_cq(cqe=256) failed: Connection timed out
[1741111389.309248] [ohm:920041:0]        ib_iface.c:1059 UCX  ERROR ibv_create_cq(cqe=256) failed: Connection timed out
[1741111389.310045] [ohm:919963:0]        ib_iface.c:1059 UCX  ERROR ibv_create_cq(cqe=256) failed: Connection timed out
[1741111389.316540] [ohm:919935:0]        ib_iface.c:1059 UCX  ERROR ibv_create_cq(cqe=256) failed: Connection timed out
[1741111389.324519] [ohm:920049:0]        ib_iface.c:1059 UCX  ERROR ibv_create_cq(cqe=256) failed: Connection timed out
[1741111389.357439] [ohm:919925:0]        ib_iface.c:1059 UCX  ERROR ibv_create_cq(cqe=256) failed: Connection timed out
[1741111389.366050] [ohm:919997:0]        ib_iface.c:1059 UCX  ERROR ibv_create_cq(cqe=256) failed: Connection timed out
[1741111389.368367] [ohm:919919:0]        ib_iface.c:1059 UCX  ERROR ibv_create_cq(cqe=256) failed: Connection timed out
[1741111389.370797] [ohm:919913:0]        ib_iface.c:1059 UCX  ERROR ibv_create_cq(cqe=256) failed: Connection timed out
[1741111389.377894] [ohm:919978:0]        ib_iface.c:1059 UCX  ERROR ibv_create_cq(cqe=256) failed: Connection timed out
[1741111389.386532] [ohm:920029:0]        ib_iface.c:1059 UCX  ERROR ibv_create_cq(cqe=256) failed: Connection timed out
[1741111389.392087] [ohm:919954:0]        ib_iface.c:1059 UCX  ERROR ibv_create_cq(cqe=256) failed: Connection timed out
[1741111389.397498] [ohm:919958:0]        ib_iface.c:1059 UCX  ERROR ibv_create_cq(cqe=256) failed: Connection timed out
[1741111389.402301] [ohm:919943:0]        ib_iface.c:1059 UCX  ERROR ibv_create_cq(cqe=256) failed: Connection timed out
[1741111389.417278] [ohm:920053:0]        ib_iface.c:1059 UCX  ERROR ibv_create_cq(cqe=256) failed: Connection timed out
[1741111389.422889] [ohm:919987:0]        ib_iface.c:1059 UCX  ERROR ibv_create_cq(cqe=256) failed: Connection timed out
[1741111389.426888] [ohm:919999:0]        ib_iface.c:1059 UCX  ERROR ibv_create_cq(cqe=256) failed: Connection timed out
[1741111389.430119] [ohm:919934:0]        ib_iface.c:1059 UCX  ERROR ibv_create_cq(cqe=256) failed: Connection timed out
[1741111389.431281] [ohm:919933:0]        ib_iface.c:1059 UCX  ERROR ibv_create_cq(cqe=256) failed: Connection timed out
[1741111389.433007] [ohm:919947:0]        ib_iface.c:1059 UCX  ERROR ibv_create_cq(cqe=256) failed: Connection timed out
[1741111389.437680] [ohm:919937:0]        ib_iface.c:1059 UCX  ERROR ibv_create_cq(cqe=256) failed: Connection timed out
[1741111389.442004] [ohm:920047:0]        ib_iface.c:1059 UCX  ERROR ibv_create_cq(cqe=256) failed: Connection timed out
[1741111389.450542] [ohm:920026:0]        ib_iface.c:1059 UCX  ERROR ibv_create_cq(cqe=256) failed: Connection timed out
[1741111389.451485] [ohm:919962:0]        ib_iface.c:1059 UCX  ERROR ibv_create_cq(cqe=256) failed: Connection timed out
[1741111389.452421] [ohm:919927:0]        ib_iface.c:1059 UCX  ERROR ibv_create_cq(cqe=256) failed: Connection timed out
[1741111389.463191] [ohm:920012:0]        ib_iface.c:1059 UCX  ERROR ibv_create_cq(cqe=256) failed: Connection timed out
[1741111389.466600] [ohm:919941:0]        ib_iface.c:1059 UCX  ERROR ibv_create_cq(cqe=256) failed: Connection timed out
[1741111389.470913] [ohm:920019:0]        ib_iface.c:1059 UCX  ERROR ibv_create_cq(cqe=256) failed: Connection timed out
[1741111389.475137] [ohm:919982:0]        ib_iface.c:1059 UCX  ERROR ibv_create_cq(cqe=256) failed: Connection timed out
[1741111389.476459] [ohm:920036:0]        ib_iface.c:1059 UCX  ERROR ibv_create_cq(cqe=256) failed: Connection timed out
[1741111389.477522] [ohm:920014:0]        ib_iface.c:1059 UCX  ERROR ibv_create_cq(cqe=256) failed: Connection timed out
[1741111389.481577] [ohm:920024:0]        ib_iface.c:1059 UCX  ERROR ibv_create_cq(cqe=256) failed: Connection timed out
[1741111389.484439] [ohm:920005:0]        ib_iface.c:1059 UCX  ERROR ibv_create_cq(cqe=256) failed: Connection timed out
[1741111389.484499] [ohm:920022:0]        ib_iface.c:1059 UCX  ERROR ibv_create_cq(cqe=256) failed: Connection timed out
[1741111389.494931] [ohm:919971:0]        ib_iface.c:1059 UCX  ERROR ibv_create_cq(cqe=256) failed: Connection timed out
[1741111389.496915] [ohm:919931:0]        ib_iface.c:1059 UCX  ERROR ibv_create_cq(cqe=256) failed: Connection timed out
[1741111389.501173] [ohm:920008:0]        ib_iface.c:1059 UCX  ERROR ibv_create_cq(cqe=256) failed: Connection timed out
[1741111389.502032] [ohm:919991:0]        ib_iface.c:1059 UCX  ERROR ibv_create_cq(cqe=256) failed: Connection timed out
[1741111389.502022] [ohm:919936:0]        ib_iface.c:1059 UCX  ERROR ibv_create_cq(cqe=256) failed: Connection timed out
[1741111389.502578] [ohm:920033:0]        ib_iface.c:1059 UCX  ERROR ibv_create_cq(cqe=256) failed: Connection timed out
[1741111389.503718] [ohm:919970:0]        ib_iface.c:1059 UCX  ERROR ibv_create_cq(cqe=256) failed: Connection timed out
[1741111389.503757] [ohm:919976:0]        ib_iface.c:1059 UCX  ERROR ibv_create_cq(cqe=256) failed: Connection timed out
[1741111389.504952] [ohm:920042:0]        ib_iface.c:1059 UCX  ERROR ibv_create_cq(cqe=256) failed: Connection timed out
[1741111389.505296] [ohm:919938:0]        ib_iface.c:1059 UCX  ERROR ibv_create_cq(cqe=256) failed: Connection timed out
[1741111389.505592] [ohm:920032:0]        ib_iface.c:1059 UCX  ERROR ibv_create_cq(cqe=256) failed: Connection timed out
[1741111389.506650] [ohm:920003:0]        ib_iface.c:1059 UCX  ERROR ibv_create_cq(cqe=256) failed: Connection timed out


           ************************************************************
           *        Program running with 64 parallel MPI-processes    *
           *              working on a common directory               *
           ************************************************************
------------------------------------------------------------------------------
                             ORCA STARTUP CALCULATIONS
                           -- RI-GTO INTEGRALS CHOSEN --
------------------------------------------------------------------------------
------------------------------------------------------------------------------
                   ___                                                        
                  /   \      - P O W E R E D   B Y -                         
                 /     \                                                     
                 |  |  |   _    _      __       _____    __    __             
                 |  |  |  | |  | |    /  \     |  _  \  |  |  /  |          
                  \  \/   | |  | |   /    \    | | | |  |  | /  /          
                 / \  \   | |__| |  /  /\  \   | |_| |  |  |/  /          
                |  |  |   |  __  | /  /__\  \  |    /   |      \           
                |  |  |   | |  | | |   __   |  |    \   |  |\   \          
                \     /   | |  | | |  |  |  |  | |\  \  |  | \   \       
                 \___/    |_|  |_| |__|  |__|  |_| \__\ |__|  \__/        
                                                                              
                      - O R C A' S   B I G   F R I E N D -                    
                                      &                                       
                       - I N T E G R A L  F E E D E R -                       
                                                                              
 v1 FN, 2020, v2 2021, v3 2022-2024                                           
------------------------------------------------------------------------------


----------------------
SHARK INTEGRAL PACKAGE
----------------------

Number of atoms                             ...     30
Number of basis functions                   ...    882
Number of shells                            ...    322
Maximum angular momentum                    ...      3
Integral batch strategy                     ... SHARK/LIBINT Hybrid
RI-J (if used) integral strategy            ... SPLIT-RIJ (Revised 2003 algorithm where possible)
Printlevel                                  ...      1
Contraction scheme used                     ... SEGMENTED contraction
Prescreening option                         ... SCHWARTZ
   Thresh                                   ... 2.500e-11
   Tcut                                     ... 2.500e-12
   Tpresel                                  ... 2.500e-12 
Coulomb Range Separation                    ... NOT USED
Exchange Range Separation                   ... Long Range
   Mu parameter                             ... 3.000e-01
   Scaling (regular/separated)              ... 1.500e-01 8.500e-01
Multipole approximations                    ... NOT USED
Finite Nucleus Model                        ... NOT USED
CABS basis                                  ... NOT available
Auxiliary Coulomb fitting basis             ... AVAILABLE
   # of basis functions in Aux-J            ...   1014
   # of shells in Aux-J                     ...    330
   Maximum angular momentum in Aux-J        ...      4
Auxiliary J/K fitting basis                 ... NOT available
Auxiliary Correlation fitting basis         ... NOT available
Auxiliary 'external' fitting basis          ... NOT available

Checking pre-screening integrals            ... done (  0.0 sec) Dimension = 322
Check shell pair data                       ... done (  0.0 sec)
Shell pair information
Shell pair cut-off parameter TPreSel        ...   2.5e-12
Total number of shell pairs                 ...     52003
Shell pairs after pre-screening             ...     45275
Total number of primitive shell pairs       ...    129718
Primitive shell pairs kept                  ...     84775
          la=0 lb=0:   8761 shell pairs
          la=1 lb=0:  11980 shell pairs
          la=1 lb=1:   4135 shell pairs
          la=2 lb=0:   8132 shell pairs
          la=2 lb=1:   5632 shell pairs
          la=2 lb=2:   1938 shell pairs
          la=3 lb=0:   2084 shell pairs
          la=3 lb=1:   1469 shell pairs
          la=3 lb=2:   1000 shell pairs
          la=3 lb=3:    144 shell pairs

Calculating one electron integrals          ... done (  0.2 sec)
Calculating RI/J V-Matrix + Cholesky decomp.... done (  0.1 sec)
Calculating Nuclear repulsion               ... done (  0.0 sec) ENN=   1448.801597065314 Eh

Diagonalization of the overlap matrix:
Smallest eigenvalue                        ... 5.307e-07
Time for diagonalization                   ...    0.126 sec
Threshold for overlap eigenvalues          ... 1.000e-07
Number of eigenvalues below threshold      ... 0

IMPORTANT:
Smallest eigenvalue of S below the DiffSThresh (1.000e-06) while
Thresh>1e-12 and/or TCut>1e-13! In order to avoid SCF convergence issues,
Thresh will be set to at least 1e-12 and TCut to at least 1e-13.
This can be turned off by adding %SCF DiffSThresh -1 END to the input.

Time for construction of square roots      ...    0.135 sec
Total time needed                          ...    0.277 sec

-------------------
DFT GRID GENERATION
-------------------

General Integration Accuracy     IntAcc      ... 4.388
Radial Grid Type                 RadialGrid  ... OptM3 with GC (2021)
Angular Grid (max. ang.)         AngularGrid ... 4 (Lebedev-302)
Angular grid pruning method      GridPruning ... 4 (adaptive)
Weight generation scheme         WeightScheme... mBecke (2022)
Basis function cutoff            BFCut       ... 1.0000e-11
Integration weight cutoff        WCut        ... 1.0000e-14
Partially contracted basis set               ... off
Rotationally invariant grid construction     ... off
Angular grids for H and He will be reduced by one unit
Diffuse basis detected: some atoms will have their outermost
                        angular grid increased by 1.

Total number of grid points                  ...   151622
Total number of batches                      ...     2382
Average number of points per batch           ...       63
Average number of grid points per atom       ...     5054

--------------------
COSX GRID GENERATION
--------------------

GRIDX 1
-------
General Integration Accuracy     IntAcc      ... 3.816
Radial Grid Type                 RadialGrid  ... OptM3 with GC (2021)
Angular Grid (max. ang.)         AngularGrid ... 1 (Lebedev-50)
Angular grid pruning method      GridPruning ... 4 (adaptive)
Weight generation scheme         WeightScheme... mBecke (2022)
Basis function cutoff            BFCut       ... 1.0000e-11
Integration weight cutoff        WCut        ... 1.0000e-14
Partially contracted basis set               ... on
Rotationally invariant grid construction     ... off
Angular grids for H and He will be reduced by one unit
Diffuse basis detected: some atoms will have their outermost
                        angular grid increased by 1.

Total number of grid points                  ...    18974
Total number of batches                      ...      164
Average number of points per batch           ...      115
Average number of grid points per atom       ...      632
UseSFitting                                  ... on

GRIDX 2
-------
General Integration Accuracy     IntAcc      ... 4.020
Radial Grid Type                 RadialGrid  ... OptM3 with GC (2021)
Angular Grid (max. ang.)         AngularGrid ... 2 (Lebedev-110)
Angular grid pruning method      GridPruning ... 4 (adaptive)
Weight generation scheme         WeightScheme... mBecke (2022)
Basis function cutoff            BFCut       ... 1.0000e-11
Integration weight cutoff        WCut        ... 1.0000e-14
Partially contracted basis set               ... on
Rotationally invariant grid construction     ... off
Angular grids for H and He will be reduced by one unit
Diffuse basis detected: some atoms will have their outermost
                        angular grid increased by 1.

Total number of grid points                  ...    45726
Total number of batches                      ...      370
Average number of points per batch           ...      123
Average number of grid points per atom       ...     1524
UseSFitting                                  ... on

GRIDX 3
-------
General Integration Accuracy     IntAcc      ... 4.338
Radial Grid Type                 RadialGrid  ... OptM3 with GC (2021)
Angular Grid (max. ang.)         AngularGrid ... 3 (Lebedev-194)
Angular grid pruning method      GridPruning ... 4 (adaptive)
Weight generation scheme         WeightScheme... mBecke (2022)
Basis function cutoff            BFCut       ... 1.0000e-11
Integration weight cutoff        WCut        ... 1.0000e-14
Partially contracted basis set               ... on
Rotationally invariant grid construction     ... off
Angular grids for H and He will be reduced by one unit
Diffuse basis detected: some atoms will have their outermost
                        angular grid increased by 1.

Total number of grid points                  ...   100557
Total number of batches                      ...      802
Average number of points per batch           ...      125
Average number of grid points per atom       ...     3352
UseSFitting                                  ... on
Initializing property integral containers    ... done (  0.0 sec)

SHARK setup successfully completed in   4.2 seconds

Maximum memory used throughout the entire STARTUP-calculation: 80.3 MB
[1741111395.754646] [ohm:920260:0]        ib_iface.c:1059 UCX  ERROR ibv_create_cq(cqe=256) failed: Connection timed out
[1741111395.781623] [ohm:920264:0]        ib_iface.c:1059 UCX  ERROR ibv_create_cq(cqe=256) failed: Connection timed out
[1741111395.789435] [ohm:920262:0]        ib_iface.c:1059 UCX  ERROR ibv_create_cq(cqe=256) failed: Connection timed out
[1741111395.793649] [ohm:920263:0]        ib_iface.c:1059 UCX  ERROR ibv_create_cq(cqe=256) failed: Connection timed out
[1741111395.796605] [ohm:920278:0]        ib_iface.c:1059 UCX  ERROR ibv_create_cq(cqe=256) failed: Connection timed out
[1741111395.799065] [ohm:920266:0]        ib_iface.c:1059 UCX  ERROR ibv_create_cq(cqe=256) failed: Connection timed out
[1741111395.801716] [ohm:920268:0]        ib_iface.c:1059 UCX  ERROR ibv_create_cq(cqe=256) failed: Connection timed out
[1741111395.804169] [ohm:920261:0]        ib_iface.c:1059 UCX  ERROR ibv_create_cq(cqe=256) failed: Connection timed out
[1741111395.818887] [ohm:920265:0]        ib_iface.c:1059 UCX  ERROR ibv_create_cq(cqe=256) failed: Connection timed out
[1741111395.833950] [ohm:920271:0]        ib_iface.c:1059 UCX  ERROR ibv_create_cq(cqe=256) failed: Connection timed out
[1741111395.834287] [ohm:920269:0]        ib_iface.c:1059 UCX  ERROR ibv_create_cq(cqe=256) failed: Connection timed out
[1741111395.834409] [ohm:920327:0]        ib_iface.c:1059 UCX  ERROR ibv_create_cq(cqe=256) failed: Connection timed out
[1741111395.842276] [ohm:920284:0]        ib_iface.c:1059 UCX  ERROR ibv_create_cq(cqe=256) failed: Connection timed out
[1741111395.846912] [ohm:920281:0]        ib_iface.c:1059 UCX  ERROR ibv_create_cq(cqe=256) failed: Connection timed out
[1741111395.850508] [ohm:920267:0]        ib_iface.c:1059 UCX  ERROR ibv_create_cq(cqe=256) failed: Connection timed out
[1741111395.855932] [ohm:920286:0]        ib_iface.c:1059 UCX  ERROR ibv_create_cq(cqe=256) failed: Connection timed out
[1741111395.860980] [ohm:920373:0]        ib_iface.c:1059 UCX  ERROR ibv_create_cq(cqe=256) failed: Connection timed out
[1741111395.867055] [ohm:920359:0]        ib_iface.c:1059 UCX  ERROR ibv_create_cq(cqe=256) failed: Connection timed out
[1741111395.896542] [ohm:920364:0]        ib_iface.c:1059 UCX  ERROR ibv_create_cq(cqe=256) failed: Connection timed out
[1741111395.901690] [ohm:920346:0]        ib_iface.c:1059 UCX  ERROR ibv_create_cq(cqe=256) failed: Connection timed out
[1741111395.930215] [ohm:920321:0]        ib_iface.c:1059 UCX  ERROR ibv_create_cq(cqe=256) failed: Connection timed out
[1741111395.939609] [ohm:920403:0]        ib_iface.c:1059 UCX  ERROR ibv_create_cq(cqe=256) failed: Connection timed out
[1741111395.939564] [ohm:920371:0]        ib_iface.c:1059 UCX  ERROR ibv_create_cq(cqe=256) failed: Connection timed out
[1741111395.939664] [ohm:920386:0]        ib_iface.c:1059 UCX  ERROR ibv_create_cq(cqe=256) failed: Connection timed out
[1741111395.944093] [ohm:920366:0]        ib_iface.c:1059 UCX  ERROR ibv_create_cq(cqe=256) failed: Connection timed out
[1741111395.944522] [ohm:920300:0]        ib_iface.c:1059 UCX  ERROR ibv_create_cq(cqe=256) failed: Connection timed out
[1741111395.946707] [ohm:920381:0]        ib_iface.c:1059 UCX  ERROR ibv_create_cq(cqe=256) failed: Connection timed out
[1741111395.959348] [ohm:920340:0]        ib_iface.c:1059 UCX  ERROR ibv_create_cq(cqe=256) failed: Connection timed out
[1741111395.980323] [ohm:920348:0]        ib_iface.c:1059 UCX  ERROR ibv_create_cq(cqe=256) failed: Connection timed out
[1741111395.980328] [ohm:920416:0]        ib_iface.c:1059 UCX  ERROR ibv_create_cq(cqe=256) failed: Connection timed out
[1741111395.990585] [ohm:920398:0]        ib_iface.c:1059 UCX  ERROR ibv_create_cq(cqe=256) failed: Connection timed out
[1741111395.993730] [ohm:920342:0]        ib_iface.c:1059 UCX  ERROR ibv_create_cq(cqe=256) failed: Connection timed out
[1741111396.006291] [ohm:920295:0]        ib_iface.c:1059 UCX  ERROR ibv_create_cq(cqe=256) failed: Connection timed out
[1741111396.015495] [ohm:920385:0]        ib_iface.c:1059 UCX  ERROR ibv_create_cq(cqe=256) failed: Connection timed out
[1741111396.017791] [ohm:920275:0]        ib_iface.c:1059 UCX  ERROR ibv_create_cq(cqe=256) failed: Connection timed out
[1741111396.018151] [ohm:920307:0]        ib_iface.c:1059 UCX  ERROR ibv_create_cq(cqe=256) failed: Connection timed out
[1741111396.023003] [ohm:920408:0]        ib_iface.c:1059 UCX  ERROR ibv_create_cq(cqe=256) failed: Connection timed out
[1741111396.024550] [ohm:920319:0]        ib_iface.c:1059 UCX  ERROR ibv_create_cq(cqe=256) failed: Connection timed out
[1741111396.039413] [ohm:920304:0]        ib_iface.c:1059 UCX  ERROR ibv_create_cq(cqe=256) failed: Connection timed out
[1741111396.041371] [ohm:920392:0]        ib_iface.c:1059 UCX  ERROR ibv_create_cq(cqe=256) failed: Connection timed out
[1741111396.052356] [ohm:920314:0]        ib_iface.c:1059 UCX  ERROR ibv_create_cq(cqe=256) failed: Connection timed out
[1741111396.057531] [ohm:920283:0]        ib_iface.c:1059 UCX  ERROR ibv_create_cq(cqe=256) failed: Connection timed out
[1741111396.060340] [ohm:920293:0]        ib_iface.c:1059 UCX  ERROR ibv_create_cq(cqe=256) failed: Connection timed out
[1741111396.061399] [ohm:920355:0]        ib_iface.c:1059 UCX  ERROR ibv_create_cq(cqe=256) failed: Connection timed out
[1741111396.063735] [ohm:920279:0]        ib_iface.c:1059 UCX  ERROR ibv_create_cq(cqe=256) failed: Connection timed out
[1741111396.069609] [ohm:920280:0]        ib_iface.c:1059 UCX  ERROR ibv_create_cq(cqe=256) failed: Connection timed out
[1741111396.072919] [ohm:920272:0]        ib_iface.c:1059 UCX  ERROR ibv_create_cq(cqe=256) failed: Connection timed out
[1741111396.075350] [ohm:920351:0]        ib_iface.c:1059 UCX  ERROR ibv_create_cq(cqe=256) failed: Connection timed out
[1741111396.075742] [ohm:920377:0]        ib_iface.c:1059 UCX  ERROR ibv_create_cq(cqe=256) failed: Connection timed out
[1741111396.077650] [ohm:920290:0]        ib_iface.c:1059 UCX  ERROR ibv_create_cq(cqe=256) failed: Connection timed out
[1741111396.083454] [ohm:920358:0]        ib_iface.c:1059 UCX  ERROR ibv_create_cq(cqe=256) failed: Connection timed out
[1741111396.084415] [ohm:920311:0]        ib_iface.c:1059 UCX  ERROR ibv_create_cq(cqe=256) failed: Connection timed out
[1741111396.085449] [ohm:920285:0]        ib_iface.c:1059 UCX  ERROR ibv_create_cq(cqe=256) failed: Connection timed out
[1741111396.087246] [ohm:920276:0]        ib_iface.c:1059 UCX  ERROR ibv_create_cq(cqe=256) failed: Connection timed out
[1741111396.088136] [ohm:920288:0]        ib_iface.c:1059 UCX  ERROR ibv_create_cq(cqe=256) failed: Connection timed out
[1741111396.090880] [ohm:920282:0]        ib_iface.c:1059 UCX  ERROR ibv_create_cq(cqe=256) failed: Connection timed out
[1741111396.091022] [ohm:920331:0]        ib_iface.c:1059 UCX  ERROR ibv_create_cq(cqe=256) failed: Connection timed out
[1741111396.094564] [ohm:920315:0]        ib_iface.c:1059 UCX  ERROR ibv_create_cq(cqe=256) failed: Connection timed out
[1741111396.094973] [ohm:920273:0]        ib_iface.c:1059 UCX  ERROR ibv_create_cq(cqe=256) failed: Connection timed out
[1741111396.095400] [ohm:920334:0]        ib_iface.c:1059 UCX  ERROR ibv_create_cq(cqe=256) failed: Connection timed out
[1741111396.096159] [ohm:920274:0]        ib_iface.c:1059 UCX  ERROR ibv_create_cq(cqe=256) failed: Connection timed out
[1741111396.096365] [ohm:920287:0]        ib_iface.c:1059 UCX  ERROR ibv_create_cq(cqe=256) failed: Connection timed out
[1741111396.097866] [ohm:920270:0]        ib_iface.c:1059 UCX  ERROR ibv_create_cq(cqe=256) failed: Connection timed out
[1741111396.097913] [ohm:920277:0]        ib_iface.c:1059 UCX  ERROR ibv_create_cq(cqe=256) failed: Connection timed out


           ************************************************************
           *        Program running with 64 parallel MPI-processes    *
           *              working on a common directory               *
           ************************************************************
-------------------------------------------------------------------------------
                                 ORCA GUESS
                   Start orbitals & Density for SCF / CASSCF
-------------------------------------------------------------------------------

------------
SCF SETTINGS
------------
Hamiltonian:
 Density Functional     Method          .... DFT(GTOs)
  Functional kind                       .... Exchange-Correlation
  Functional name                       .... wB97M-V exchange-correlation functional
  Functional family                     .... Hybrid MGGA
  Functional refs                              
    [ 0] N. Mardirossian and M. Head-Gordon.,  J. Chem. Phys. 144, 214110 (2016), doi: 10.1063/1.4952647
  Fraction of HF Exchange (short range) .... 0.1500
  Fraction of HF Exchange (long range)  .... 1.0000
  Range separation parameter mu         .... 0.3000
  Functional external parameters        .... 17
    Parameter  0 _cx00      =  8.500000e-01 : u^00 coefficient for exchange
    Parameter  1 _cx01      =  1.007000e+00 : u^01 coefficient for exchange
    Parameter  2 _cx10      =  2.590000e-01 : u^10 coefficient for exchange
    Parameter  3 _css00     =  4.430000e-01 : u^00 coefficient for same-spin correlation
    Parameter  4 _css04     = -1.437000e+00 : u^04 coefficient for same-spin correlation
    Parameter  5 _css10     = -4.535000e+00 : u^10 coefficient for same-spin correlation
    Parameter  6 _css20     = -3.390000e+00 : u^20 coefficient for same-spin correlation
    Parameter  7 _css43     =  4.278000e+00 : u^43 coefficient for same-spin correlation
    Parameter  8 _cos00     =  1.000000e+00 : u^00 coefficient for opposite-spin correlation
    Parameter  9 _cos10     =  1.358000e+00 : u^10 coefficient for opposite-spin correlation
    Parameter 10 _cos20     =  2.924000e+00 : u^20 coefficient for opposite-spin correlation
    Parameter 11 _cos21     = -8.812000e+00 : u^21 coefficient for opposite-spin correlation
    Parameter 12 _cos60     = -1.390000e+00 : u^60 coefficient for opposite-spin correlation
    Parameter 13 _cos61     =  9.142000e+00 : u^61 coefficient for opposite-spin correlation
    Parameter 14 _alpha     =  1.000000e+00 : fraction of HF exchange
    Parameter 15 _beta      = -8.500000e-01 : fraction of short-range exchange
    Parameter 16 _omega     =  3.000000e-01 : range-separation constant
 Long-range corrected/Screened/Range-Separated Hybrid DFT is turned on
   Amount of maximum screened exact exchange              ....  0.850000
   Range separation parameter mu (erf(mu*r12)/r12)        ....  0.300000
 RI-approximation to the Coulomb term is turned on
   Number of AuxJ basis functions       .... 1014
   RIJ-COSX (HFX calculated with COS-X)).... on


General Settings:
 Integral files         IntName         .... orca
 Hartree-Fock type      HFTyp           .... UHF
 Total Charge           Charge          ....    0
 Multiplicity           Mult            ....    3
 Number of Electrons    NEL             ....  132
 Basis Dimension        Dim             ....  882
 Nuclear Repulsion      ENuc            ....   1448.8015970653 Eh

Convergence Acceleration:
 AO-DIIS                CNVDIIS         .... on
   Start iteration      DIISMaxIt       ....    12
   Startup error        DIISStart       ....  0.200000
   # of expansion vecs  DIISMaxEq       ....     5
   Bias factor          DIISBfac        ....   1.050
   Max. coefficient     DIISMaxC        ....  10.000
 MO-DIIS                CNVKDIIS        .... off
 Trust-Rad. Augm. Hess. CNVTRAH         .... auto
   Auto Start mean grad. ratio tolernc. ....  1.125000
   Auto Start start iteration           ....    50
   Auto Start num. interpolation iter.  ....    10
   Max. Number of Micro iterations      ....    24
   Max. Number of Macro iterations      .... Maxiter - #DIIS iter
   Number of Davidson start vectors     ....     2
   Converg. threshold    (grad. norm)   ....   1.000e-05
   Grad. Scal. Fac. for Micro threshold ....   0.100
   Minimum threshold for Micro iter.    ....   1.000e-02
   NR start threshold (gradient norm)   ....   1.000e-04
   Initial trust radius                 ....   0.400
   Minimum AH scaling param. (alpha)    ....   1.000
   Maximum AH scaling param. (alpha)    .... 1000.000
   Quad. conv. algorithm                .... NR
   White noise on init. David. guess    .... on
   Maximum white noise                  ....   0.010
   Pseudo random numbers                .... off
   Inactive MOs                         .... canonical
   Orbital update algorithm             .... Taylor
   Preconditioner                       .... Diag
   Full preconditioner red. dimension   ....   250
 SOSCF                  CNVSOSCF        .... on
   Start iteration      SOSCFMaxIt      ....   150
   Startup grad/error   SOSCFStart      ....  0.003300
   Hessian update       SOSCFHessUp     .... L-BFGS
 Level Shifting         CNVShift        .... on
   Level shift para.    LevelShift      ....    0.2500
   Turn off err/grad.   ShiftErr        ....    0.0010
 Zerner damping         CNVZerner       .... off
 Static damping         CNVDamp         .... on
   Fraction old density DampFac         ....    0.7000
   Max. Damping (<1)    DampMax         ....    0.9800
   Min. Damping (>=0)   DampMin         ....    0.0000
   Turn off err/grad.   DampErr         ....    0.1000

SCF Procedure:
 Maximum # iterations   MaxIter         ....   125
 SCF integral mode      SCFMode         .... Direct
   Integral package                     .... SHARK and LIBINT hybrid scheme
 Reset frequency        DirectResetFreq ....    20
 Integral Threshold     Thresh          ....  1.000e-12 Eh
 Primitive CutOff       TCut            ....  1.000e-13 Eh

Convergence Tolerance:
 Convergence Check Mode ConvCheckMode   .... Total+1el-Energy
 Convergence forced     ConvForced      .... 1
 Energy Change          TolE            ....  1.000e-08 Eh
 1-El. energy change                    ....  1.000e-05 Eh
 Orbital Gradient       TolG            ....  1.000e-05
 Orbital Rotation angle TolX            ....  1.000e-05
 DIIS Error             TolErr          ....  5.000e-07

------------------------------
INITIAL GUESS: MODEL POTENTIAL
------------------------------
Loading Hartree-Fock densities                     ... done
Calculating cut-offs                               ... done
Initializing the effective Hamiltonian             ... done
Setting up the integral package (SHARK)            ... done
Starting the Coulomb interaction                   ... done (   0.1 sec)
Making the grid                                    ... done (   0.3 sec)
Mapping shells                                     ... done
Starting the XC term evaluation                    ... done (   0.1 sec)
  promolecular density results
     # of electrons  =    131.995586432
     EX              =   -113.513885217
     EC              =     -4.495352161
     EX+EC           =   -118.009237378
Transforming the Hamiltonian                       ... done (   0.1 sec)
Diagonalizing the Hamiltonian                      ... done (   0.1 sec)
Back transforming the eigenvectors                 ... done (   0.1 sec)
Now organizing SCF variables                       ... done
                      ------------------
                      INITIAL GUESS DONE (   1.1 sec)
                      ------------------
             **** ENERGY FILE WAS UPDATED (orca.en.tmp) ****
Finished Guess after   3.7 sec
Maximum memory used throughout the entire GUESS-calculation: 72.8 MB
[1741111400.026113] [ohm:920611:0]        ib_iface.c:1059 UCX  ERROR ibv_create_cq(cqe=256) failed: Connection timed out
[1741111400.028266] [ohm:920612:0]        ib_iface.c:1059 UCX  ERROR ibv_create_cq(cqe=256) failed: Connection timed out
[1741111400.048556] [ohm:920615:0]        ib_iface.c:1059 UCX  ERROR ibv_create_cq(cqe=256) failed: Connection timed out
[1741111400.093228] [ohm:920629:0]        ib_iface.c:1059 UCX  ERROR ibv_create_cq(cqe=256) failed: Connection timed out
[1741111400.094862] [ohm:920613:0]        ib_iface.c:1059 UCX  ERROR ibv_create_cq(cqe=256) failed: Connection timed out
[1741111400.100089] [ohm:920610:0]        ib_iface.c:1059 UCX  ERROR ibv_create_cq(cqe=256) failed: Connection timed out
[1741111400.114343] [ohm:920630:0]        ib_iface.c:1059 UCX  ERROR ibv_create_cq(cqe=256) failed: Connection timed out
[1741111400.121605] [ohm:920625:0]        ib_iface.c:1059 UCX  ERROR ibv_create_cq(cqe=256) failed: Connection timed out
[1741111400.125968] [ohm:920617:0]        ib_iface.c:1059 UCX  ERROR ibv_create_cq(cqe=256) failed: Connection timed out
[1741111400.128631] [ohm:920620:0]        ib_iface.c:1059 UCX  ERROR ibv_create_cq(cqe=256) failed: Connection timed out
[1741111400.128648] [ohm:920635:0]        ib_iface.c:1059 UCX  ERROR ibv_create_cq(cqe=256) failed: Connection timed out
[1741111400.130341] [ohm:920631:0]        ib_iface.c:1059 UCX  ERROR ibv_create_cq(cqe=256) failed: Connection timed out
[1741111400.138997] [ohm:920622:0]        ib_iface.c:1059 UCX  ERROR ibv_create_cq(cqe=256) failed: Connection timed out
[1741111400.142428] [ohm:920702:0]        ib_iface.c:1059 UCX  ERROR ibv_create_cq(cqe=256) failed: Connection timed out
[1741111400.168419] [ohm:920672:0]        ib_iface.c:1059 UCX  ERROR ibv_create_cq(cqe=256) failed: Connection timed out
[1741111400.168904] [ohm:920627:0]        ib_iface.c:1059 UCX  ERROR ibv_create_cq(cqe=256) failed: Connection timed out
[1741111400.180747] [ohm:920710:0]        ib_iface.c:1059 UCX  ERROR ibv_create_cq(cqe=256) failed: Connection timed out
[1741111400.240365] [ohm:920726:0]        ib_iface.c:1059 UCX  ERROR ibv_create_cq(cqe=256) failed: Connection timed out
[1741111400.258348] [ohm:920737:0]        ib_iface.c:1059 UCX  ERROR ibv_create_cq(cqe=256) failed: Connection timed out
[1741111400.273985] [ohm:920671:0]        ib_iface.c:1059 UCX  ERROR ibv_create_cq(cqe=256) failed: Connection timed out
[1741111400.274321] [ohm:920715:0]        ib_iface.c:1059 UCX  ERROR ibv_create_cq(cqe=256) failed: Connection timed out
[1741111400.281901] [ohm:920739:0]        ib_iface.c:1059 UCX  ERROR ibv_create_cq(cqe=256) failed: Connection timed out
[1741111400.296289] [ohm:920632:0]        ib_iface.c:1059 UCX  ERROR ibv_create_cq(cqe=256) failed: Connection timed out
[1741111400.302398] [ohm:920636:0]        ib_iface.c:1059 UCX  ERROR ibv_create_cq(cqe=256) failed: Connection timed out
[1741111400.312395] [ohm:920614:0]        ib_iface.c:1059 UCX  ERROR ibv_create_cq(cqe=256) failed: Connection timed out
[1741111400.316256] [ohm:920619:0]        ib_iface.c:1059 UCX  ERROR ibv_create_cq(cqe=256) failed: Connection timed out
[1741111400.319316] [ohm:920665:0]        ib_iface.c:1059 UCX  ERROR ibv_create_cq(cqe=256) failed: Connection timed out
[1741111400.327470] [ohm:920749:0]        ib_iface.c:1059 UCX  ERROR ibv_create_cq(cqe=256) failed: Connection timed out
[1741111400.330022] [ohm:920616:0]        ib_iface.c:1059 UCX  ERROR ibv_create_cq(cqe=256) failed: Connection timed out
[1741111400.330022] [ohm:920746:0]        ib_iface.c:1059 UCX  ERROR ibv_create_cq(cqe=256) failed: Connection timed out
[1741111400.335900] [ohm:920628:0]        ib_iface.c:1059 UCX  ERROR ibv_create_cq(cqe=256) failed: Connection timed out
[1741111400.342729] [ohm:920705:0]        ib_iface.c:1059 UCX  ERROR ibv_create_cq(cqe=256) failed: Connection timed out
[1741111400.346290] [ohm:920656:0]        ib_iface.c:1059 UCX  ERROR ibv_create_cq(cqe=256) failed: Connection timed out
[1741111400.350135] [ohm:920648:0]        ib_iface.c:1059 UCX  ERROR ibv_create_cq(cqe=256) failed: Connection timed out
[1741111400.351315] [ohm:920668:0]        ib_iface.c:1059 UCX  ERROR ibv_create_cq(cqe=256) failed: Connection timed out
[1741111400.360632] [ohm:920690:0]        ib_iface.c:1059 UCX  ERROR ibv_create_cq(cqe=256) failed: Connection timed out
[1741111400.361768] [ohm:920678:0]        ib_iface.c:1059 UCX  ERROR ibv_create_cq(cqe=256) failed: Connection timed out
[1741111400.364081] [ohm:920660:0]        ib_iface.c:1059 UCX  ERROR ibv_create_cq(cqe=256) failed: Connection timed out
[1741111400.368693] [ohm:920695:0]        ib_iface.c:1059 UCX  ERROR ibv_create_cq(cqe=256) failed: Connection timed out
[1741111400.373193] [ohm:920641:0]        ib_iface.c:1059 UCX  ERROR ibv_create_cq(cqe=256) failed: Connection timed out
[1741111400.374453] [ohm:920618:0]        ib_iface.c:1059 UCX  ERROR ibv_create_cq(cqe=256) failed: Connection timed out
[1741111400.374670] [ohm:920707:0]        ib_iface.c:1059 UCX  ERROR ibv_create_cq(cqe=256) failed: Connection timed out
[1741111400.375534] [ohm:920621:0]        ib_iface.c:1059 UCX  ERROR ibv_create_cq(cqe=256) failed: Connection timed out
[1741111400.377925] [ohm:920724:0]        ib_iface.c:1059 UCX  ERROR ibv_create_cq(cqe=256) failed: Connection timed out
[1741111400.382799] [ohm:920698:0]        ib_iface.c:1059 UCX  ERROR ibv_create_cq(cqe=256) failed: Connection timed out
[1741111400.383717] [ohm:920638:0]        ib_iface.c:1059 UCX  ERROR ibv_create_cq(cqe=256) failed: Connection timed out
[1741111400.396505] [ohm:920624:0]        ib_iface.c:1059 UCX  ERROR ibv_create_cq(cqe=256) failed: Connection timed out
[1741111400.397710] [ohm:920720:0]        ib_iface.c:1059 UCX  ERROR ibv_create_cq(cqe=256) failed: Connection timed out
[1741111400.401779] [ohm:920754:0]        ib_iface.c:1059 UCX  ERROR ibv_create_cq(cqe=256) failed: Connection timed out
[1741111400.402676] [ohm:920743:0]        ib_iface.c:1059 UCX  ERROR ibv_create_cq(cqe=256) failed: Connection timed out
[1741111400.405448] [ohm:920727:0]        ib_iface.c:1059 UCX  ERROR ibv_create_cq(cqe=256) failed: Connection timed out
[1741111400.406631] [ohm:920652:0]        ib_iface.c:1059 UCX  ERROR ibv_create_cq(cqe=256) failed: Connection timed out
[1741111400.413297] [ohm:920731:0]        ib_iface.c:1059 UCX  ERROR ibv_create_cq(cqe=256) failed: Connection timed out
[1741111400.413455] [ohm:920733:0]        ib_iface.c:1059 UCX  ERROR ibv_create_cq(cqe=256) failed: Connection timed out
[1741111400.413835] [ohm:920644:0]        ib_iface.c:1059 UCX  ERROR ibv_create_cq(cqe=256) failed: Connection timed out
[1741111400.416555] [ohm:920677:0]        ib_iface.c:1059 UCX  ERROR ibv_create_cq(cqe=256) failed: Connection timed out
[1741111400.417318] [ohm:920634:0]        ib_iface.c:1059 UCX  ERROR ibv_create_cq(cqe=256) failed: Connection timed out
[1741111400.417581] [ohm:920626:0]        ib_iface.c:1059 UCX  ERROR ibv_create_cq(cqe=256) failed: Connection timed out
[1741111400.419027] [ohm:920714:0]        ib_iface.c:1059 UCX  ERROR ibv_create_cq(cqe=256) failed: Connection timed out
[1741111400.419795] [ohm:920642:0]        ib_iface.c:1059 UCX  ERROR ibv_create_cq(cqe=256) failed: Connection timed out
[1741111400.420280] [ohm:920623:0]        ib_iface.c:1059 UCX  ERROR ibv_create_cq(cqe=256) failed: Connection timed out
[1741111400.420463] [ohm:920633:0]        ib_iface.c:1059 UCX  ERROR ibv_create_cq(cqe=256) failed: Connection timed out
[1741111400.421407] [ohm:920685:0]        ib_iface.c:1059 UCX  ERROR ibv_create_cq(cqe=256) failed: Connection timed out
[1741111400.421437] [ohm:920637:0]        ib_iface.c:1059 UCX  ERROR ibv_create_cq(cqe=256) failed: Connection timed out


           ************************************************************
           *        Program running with 64 parallel MPI-processes    *
           *              working on a common directory               *
           ************************************************************

-------------------------------------------------------------------------------------------
                                      ORCA LEAN-SCF
                              memory conserving SCF solver
-------------------------------------------------------------------------------------------

----------------------------------------D-I-I-S--------------------------------------------
Iteration    Energy (Eh)           Delta-E    RMSDP     MaxDP     DIISErr   Damp  Time(sec)
-------------------------------------------------------------------------------------------
               ***  Starting incremental Fock matrix formation  ***
    1    -908.1121332009406615     0.00e+00  1.51e-03  3.55e-01  1.49e-01  0.700   8.0
    2    -908.3780036499915695    -2.66e-01  1.23e-03  2.51e-01  7.13e-02  0.700   6.8
                               ***Turning on AO-DIIS***
    3    -908.4941493247943072    -1.16e-01  8.92e-04  1.59e-01  2.79e-02  0.700   5.9
    4    -908.5658388107090104    -7.17e-02  2.09e-03  3.54e-01  1.87e-02  0.000   5.9
    5    -908.7274055745842816    -1.62e-01  2.37e-04  4.84e-02  4.45e-03  0.000   6.0
                              *** Initializing SOSCF ***
---------------------------------------S-O-S-C-F--------------------------------------
Iteration    Energy (Eh)           Delta-E    RMSDP     MaxDP     MaxGrad    Time(sec)
--------------------------------------------------------------------------------------
    6    -908.7288490664700475    -1.44e-03  1.21e-04  3.07e-02  2.71e-03     6.7
               *** Restarting incremental Fock matrix formation ***
    7    -908.7295295543613065    -6.80e-04  1.76e-04  1.93e-02  4.98e-03     7.5
    8    -908.7300027994037919    -4.73e-04  2.14e-04  4.93e-02  2.66e-03     6.7
    9    -908.7301776502908979    -1.75e-04  9.83e-05  1.03e-02  9.83e-04     6.8
   10    -908.7302644658275312    -8.68e-05  2.95e-05  7.53e-03  4.74e-04     6.6
   11    -908.7302772081120565    -1.27e-05  8.80e-06  1.20e-03  1.24e-04     6.5
   12    -908.7302794039737819    -2.20e-06  5.67e-06  1.25e-03  1.53e-04     6.2
   13    -908.7302805610024734    -1.16e-06  4.28e-06  4.72e-04  5.73e-05     6.2
   14    -908.7302808177814768    -2.57e-07  1.73e-06  4.39e-04  2.46e-05     6.2
   15    -908.7302808533718235    -3.56e-08  1.28e-06  2.66e-04  1.29e-05     5.9
   16    -908.7302808902231845    -3.69e-08  1.28e-06  2.54e-04  4.77e-06     5.8
   17    -908.7302809185239312    -2.83e-08  7.69e-07  1.16e-04  3.49e-06     5.8
   18    -908.7302808507934060     6.77e-08  1.34e-06  2.89e-04  8.87e-07     5.6
                  *** Gradient check signals convergence ***

               *****************************************************
               *                     SUCCESS                       *
               *           SCF CONVERGED AFTER  18 CYCLES          *
               *****************************************************

Recomputing exchange energy using gridx3       ... done (    7.911 sec)
Old exchange energy                            :    -35.020331159 Eh
New exchange energy                            :    -35.020325921 Eh
Exchange energy change after final integration :      0.000005237 Eh
Total energy after final integration           :   -908.730275614 Eh
             **** ENERGY FILE WAS UPDATED (orca.en.tmp) ****

----------------
TOTAL SCF ENERGY
----------------

Total Energy       :       -908.73027561352228 Eh          -24727.80794 eV

Components:
Nuclear Repulsion  :       1448.80159706531413 Eh           39423.89573 eV
Electronic Energy  :      -2357.53187791610753 Eh          -64151.70381 eV
One Electron Energy:      -4114.76960722333297 Eh         -111968.57338 eV
Two Electron Energy:       1757.23772930722544 Eh           47816.86958 eV

Virial components:
Potential Energy   :      -1814.17545686027324 Eh          -49366.22391 eV
Kinetic Energy     :        905.44518124675096 Eh           24638.41597 eV
Virial Ratio       :          2.00362815379088

DFT components:
N(Alpha)           :       66.999880622135 electrons
N(Beta)            :       64.999878374780 electrons
N(Total)           :      131.999758996915 electrons
E(XC)              :      -86.205378759143 Eh       

---------------
SCF CONVERGENCE
---------------

  Last Energy change         ...   -6.7731e-08  Tolerance :   1.0000e-08
  Last MAX-Density change    ...    2.8890e-04  Tolerance :   1.0000e-07
  Last RMS-Density change    ...    1.3440e-06  Tolerance :   5.0000e-09
  Last DIIS Error            ...    2.7073e-03  Tolerance :   5.0000e-07
  Last Orbital Gradient      ...    8.8703e-07  Tolerance :   1.0000e-05
  Last Orbital Rotation      ...    5.6780e-06  Tolerance :   1.0000e-05


----------------------
UHF SPIN CONTAMINATION
----------------------

Warning: in a DFT calculation there is little theoretical justification to 
         calculate <S**2> as in Hartree-Fock theory. We will do it anyways
         but you should keep in mind that the values have only limited relevance

Expectation value of <S**2>     :     2.014690
Ideal value S*(S+1) for S=1.0   :     2.000000
Deviation                       :     0.014690

----------------
ORBITAL ENERGIES
----------------
                 SPIN UP ORBITALS
  NO   OCC          E(Eh)            E(eV) 
   0   1.0000     -19.334132      -526.1085 
   1   1.0000     -19.332267      -526.0577 
   2   1.0000     -19.326089      -525.8896 
   3   1.0000     -19.323703      -525.8247 
   4   1.0000     -14.569612      -396.4593 
   5   1.0000     -14.564887      -396.3307 
   6   1.0000     -14.564321      -396.3153 
   7   1.0000     -14.563388      -396.2899 
   8   1.0000     -10.512189      -286.0512 
   9   1.0000     -10.510063      -285.9934 
  10   1.0000     -10.485139      -285.3151 
  11   1.0000     -10.476637      -285.0838 
  12   1.0000     -10.452338      -284.4226 
  13   1.0000     -10.449985      -284.3585 
  14   1.0000     -10.427068      -283.7349 
  15   1.0000     -10.409739      -283.2634 
  16   1.0000     -10.385573      -282.6058 
  17   1.0000     -10.359521      -281.8969 
  18   1.0000      -1.221731       -33.2450 
  19   1.0000      -1.215088       -33.0642 
  20   1.0000      -1.196721       -32.5644 
  21   1.0000      -1.188523       -32.3413 
  22   1.0000      -1.119765       -30.4704 
  23   1.0000      -1.098526       -29.8924 
  24   1.0000      -1.065513       -28.9941 
  25   1.0000      -1.056852       -28.7584 
  26   1.0000      -0.980588       -26.6832 
  27   1.0000      -0.943310       -25.6688 
  28   1.0000      -0.882288       -24.0083 
  29   1.0000      -0.844762       -22.9872 
  30   1.0000      -0.828168       -22.5356 
  31   1.0000      -0.803981       -21.8774 
  32   1.0000      -0.788241       -21.4491 
  33   1.0000      -0.780902       -21.2494 
  34   1.0000      -0.700852       -19.0712 
  35   1.0000      -0.693283       -18.8652 
  36   1.0000      -0.689701       -18.7677 
  37   1.0000      -0.675269       -18.3750 
  38   1.0000      -0.652473       -17.7547 
  39   1.0000      -0.641580       -17.4583 
  40   1.0000      -0.626100       -17.0371 
  41   1.0000      -0.602504       -16.3950 
  42   1.0000      -0.593778       -16.1575 
  43   1.0000      -0.586516       -15.9599 
  44   1.0000      -0.577860       -15.7244 
  45   1.0000      -0.566655       -15.4195 
  46   1.0000      -0.564549       -15.3622 
  47   1.0000      -0.560664       -15.2564 
  48   1.0000      -0.556096       -15.1321 
  49   1.0000      -0.547857       -14.9079 
  50   1.0000      -0.545218       -14.8361 
  51   1.0000      -0.536985       -14.6121 
  52   1.0000      -0.522493       -14.2178 
  53   1.0000      -0.518018       -14.0960 
  54   1.0000      -0.514671       -14.0049 
  55   1.0000      -0.500928       -13.6309 
  56   1.0000      -0.489933       -13.3318 
  57   1.0000      -0.426846       -11.6151 
  58   1.0000      -0.417582       -11.3630 
  59   1.0000      -0.412095       -11.2137 
  60   1.0000      -0.407908       -11.0997 
  61   1.0000      -0.403068       -10.9680 
  62   1.0000      -0.397570       -10.8184 
  63   1.0000      -0.392599       -10.6832 
  64   1.0000      -0.382270       -10.4021 
  65   1.0000      -0.341812        -9.3012 
  66   1.0000      -0.318931        -8.6785 
  67   0.0000       0.009431         0.2566 
  68   0.0000       0.029122         0.7924 
  69   0.0000       0.032627         0.8878 
  70   0.0000       0.037197         1.0122 
  71   0.0000       0.055067         1.4985 
  72   0.0000       0.055671         1.5149 
  73   0.0000       0.059816         1.6277 
  74   0.0000       0.061517         1.6740 
  75   0.0000       0.064390         1.7521 
  76   0.0000       0.067829         1.8457 
  77   0.0000       0.074595         2.0298 

                 SPIN DOWN ORBITALS
  NO   OCC          E(Eh)            E(eV) 
   0   1.0000     -19.329166      -525.9733 
   1   1.0000     -19.328375      -525.9518 
   2   1.0000     -19.326073      -525.8892 
   3   1.0000     -19.323393      -525.8162 
   4   1.0000     -14.568800      -396.4372 
   5   1.0000     -14.564264      -396.3138 
   6   1.0000     -14.564256      -396.3136 
   7   1.0000     -14.562993      -396.2792 
   8   1.0000     -10.512227      -286.0522 
   9   1.0000     -10.510127      -285.9951 
  10   1.0000     -10.486229      -285.3448 
  11   1.0000     -10.477492      -285.1071 
  12   1.0000     -10.451918      -284.4111 
  13   1.0000     -10.449060      -284.3334 
  14   1.0000     -10.415736      -283.4266 
  15   1.0000     -10.398558      -282.9591 
  16   1.0000     -10.386066      -282.6192 
  17   1.0000     -10.359907      -281.9074 
  18   1.0000      -1.220668       -33.2161 
  19   1.0000      -1.212417       -32.9915 
  20   1.0000      -1.193114       -32.4663 
  21   1.0000      -1.182165       -32.1683 
  22   1.0000      -1.117572       -30.4107 
  23   1.0000      -1.096074       -29.8257 
  24   1.0000      -1.063374       -28.9359 
  25   1.0000      -1.055098       -28.7107 
  26   1.0000      -0.967491       -26.3268 
  27   1.0000      -0.926064       -25.1995 
  28   1.0000      -0.877470       -23.8772 
  29   1.0000      -0.838973       -22.8296 
  30   1.0000      -0.820150       -22.3174 
  31   1.0000      -0.800075       -21.7712 
  32   1.0000      -0.786100       -21.3909 
  33   1.0000      -0.778875       -21.1943 
  34   1.0000      -0.694828       -18.9072 
  35   1.0000      -0.686767       -18.6879 
  36   1.0000      -0.685491       -18.6532 
  37   1.0000      -0.668978       -18.2038 
  38   1.0000      -0.644502       -17.5378 
  39   1.0000      -0.636526       -17.3207 
  40   1.0000      -0.618087       -16.8190 
  41   1.0000      -0.597372       -16.2553 
  42   1.0000      -0.587260       -15.9801 
  43   1.0000      -0.581082       -15.8120 
  44   1.0000      -0.572903       -15.5895 
  45   1.0000      -0.561652       -15.2833 
  46   1.0000      -0.560346       -15.2478 
  47   1.0000      -0.551771       -15.0144 
  48   1.0000      -0.548423       -14.9233 
  49   1.0000      -0.539025       -14.6676 
  50   1.0000      -0.537886       -14.6366 
  51   1.0000      -0.528318       -14.3763 
  52   1.0000      -0.514274       -13.9941 
  53   1.0000      -0.510210       -13.8835 
  54   1.0000      -0.508190       -13.8285 
  55   1.0000      -0.490313       -13.3421 
  56   1.0000      -0.484279       -13.1779 
  57   1.0000      -0.422019       -11.4837 
  58   1.0000      -0.412425       -11.2227 
  59   1.0000      -0.407967       -11.1013 
  60   1.0000      -0.395005       -10.7486 
  61   1.0000      -0.390189       -10.6176 
  62   1.0000      -0.388274       -10.5655 
  63   1.0000      -0.387214       -10.5366 
  64   1.0000      -0.368239       -10.0203 
  65   0.0000      -0.062306        -1.6954 
  66   0.0000      -0.048490        -1.3195 
  67   0.0000       0.009016         0.2453 
  68   0.0000       0.028886         0.7860 
  69   0.0000       0.032816         0.8930 
  70   0.0000       0.036990         1.0066 
  71   0.0000       0.055178         1.5015 
  72   0.0000       0.057534         1.5656 
  73   0.0000       0.059949         1.6313 
  74   0.0000       0.063430         1.7260 
  75   0.0000       0.064509         1.7554 
*Only the first 10 virtual orbitals were printed.

                    ********************************
                    * MULLIKEN POPULATION ANALYSIS *
                    ********************************

--------------------------------------------
MULLIKEN ATOMIC CHARGES AND SPIN POPULATIONS
--------------------------------------------
   0 O :   -0.672234    0.182017
   1 O :   -0.640673    0.145845
   2 O :   -0.648843    0.001336
   3 O :   -0.663743    0.010553
   4 N :   -0.135164    0.016896
   5 N :   -0.240626    0.023893
   6 N :   -0.031098    0.039835
   7 N :    0.120125    0.028170
   8 C :   -0.123027    0.515474
   9 C :    0.011797    0.440731
  10 C :    0.165844    0.089595
  11 C :    0.498489    0.168712
  12 C :   -1.330515    0.011026
  13 C :   -1.557286   -0.004411
  14 C :    0.563258    0.080314
  15 C :    0.454932    0.111194
  16 C :    0.429233   -0.002768
  17 C :    0.321545   -0.004876
  18 H :    0.530572    0.011796
  19 H :    0.677653    0.037566
  20 H :    0.324569    0.003481
  21 H :    0.361537    0.011502
  22 H :    0.372921    0.018538
  23 H :    0.463604    0.030754
  24 H :    0.235287    0.014416
  25 H :    0.266697    0.018811
  26 H :    0.009969    0.000600
  27 H :    0.095995    0.003179
  28 H :    0.107776   -0.000765
  29 H :    0.031405   -0.003413
Sum of atomic charges         :   -0.0000000
Sum of atomic spin populations:    2.0000000

-----------------------------------------------------
MULLIKEN REDUCED ORBITAL CHARGES AND SPIN POPULATIONS
-----------------------------------------------------
CHARGE
  0 O s       :     4.097326  s :     4.097326
      pz      :     1.524159  p :     4.548829
      px      :     1.577755
      py      :     1.446915
      dz2     :     0.001866  d :     0.024277
      dxz     :     0.007425
      dyz     :     0.008381
      dx2y2   :     0.003702
      dxy     :     0.002902
      f0      :     0.000268  f :     0.001802
      f+1     :     0.000403
      f-1     :     0.000243
      f+2     :     0.000386
      f-2     :     0.000357
      f+3     :     0.000079
      f-3     :     0.000067

[...]
[1741111696.354093] [ohm:922871:0]        ib_iface.c:1059 UCX  ERROR ibv_create_cq(cqe=256) failed: Connection timed out
[1741111696.355241] [ohm:922985:0]        ib_iface.c:1059 UCX  ERROR ibv_create_cq(cqe=256) failed: Connection timed out
[1741111696.361679] [ohm:922946:0]        ib_iface.c:1059 UCX  ERROR ibv_create_cq(cqe=256) failed: Connection timed out
[1741111696.366010] [ohm:923001:0]        ib_iface.c:1059 UCX  ERROR ibv_create_cq(cqe=256) failed: Connection timed out
[1741111696.368173] [ohm:922889:0]        ib_iface.c:1059 UCX  ERROR ibv_create_cq(cqe=256) failed: Connection timed out
[1741111696.368411] [ohm:922998:0]        ib_iface.c:1059 UCX  ERROR ibv_create_cq(cqe=256) failed: Connection timed out
[1741111696.368986] [ohm:922948:0]        ib_iface.c:1059 UCX  ERROR ibv_create_cq(cqe=256) failed: Connection timed out
[1741111696.369772] [ohm:922866:0]        ib_iface.c:1059 UCX  ERROR ibv_create_cq(cqe=256) failed: Connection timed out
[1741111696.370468] [ohm:922937:0]        ib_iface.c:1059 UCX  ERROR ibv_create_cq(cqe=256) failed: Connection timed out
[1741111696.370605] [ohm:922885:0]        ib_iface.c:1059 UCX  ERROR ibv_create_cq(cqe=256) failed: Connection timed out
[1741111696.371839] [ohm:922923:0]        ib_iface.c:1059 UCX  ERROR ibv_create_cq(cqe=256) failed: Connection timed out


           ************************************************************
           *        Program running with 64 parallel MPI-processes    *
           *              working on a common directory               *
           ************************************************************

------------------------------------------------------------------------------
                              ORCA PROPERTY CALCULATIONS
------------------------------------------------------------------------------

GBWName                                 ... orca.gbw
Number of atoms                         ...     30
Number of basis functions               ...    882
Max core memory                         ...   1024 MB

Electric properties:
Dipole moment                           ... YES
Quadrupole moment                       ...  NO
Static polarizability (Dipole/Dipole)   ...  NO
Static polarizability (Dipole/Quad.)    ...  NO
Static polarizability (Quad./Quad.)     ...  NO
Static polarizability (Velocity)        ...  NO

Atomic electric properties:
Dipole moment                           ...  NO
Quadrupole moment                       ...  NO
Static polarizability                   ...  NO

Choice of electric origin               ... Center of mass
Position of electric origin             ...    -0.011814    -0.084696    -0.044395

General magnetic properties:
Magnetizability                         ...  NO

EPR properties:
g-Tensor (aka g-matrix)                 ...  NO
Zero-Field splitting spin-orbit         ...  NO
Zero-field splitting spin-spin          ...  NO
Hyperfine couplings                     ...  NO (   0 nuclei)
Quadrupole couplings                    ...  NO (   0 nuclei)
Contact density                         ...  NO (   0 nuclei)

NMR properties:
Chemical shifts                         ...  NO (   0 nuclei)
Spin-rotation constants                 ...  NO (   0 nuclei)
Spin-spin couplings                     ...  NO (   0 nuclei,    0 pairs)

Choice of magnetic origin               ... GIAO
Position of magnetic origin             ...     0.000000     0.000000     0.000000

Properties with geometric perturbations:
SCF Hessian                             ...  NO
IR spectrum                             ...  NO
VCD spectrum                            ...  NO
X-ray spectroscopy properties:
SCF XES/XAS/RIXS spectra                ...  NO


-------------
DIPOLE MOMENT
-------------

Method             : SCF
Type of density    : Electron Density
Multiplicity       :   3
Irrep              :   0
Energy             :  -908.7302756135222808 Eh
Relativity type    : 
Basis              : AO
                                X                 Y                 Z
Electronic contribution:    -10.456816646      -5.822279385      -1.598713011
Nuclear contribution   :     12.533986076       6.078221766       3.245566249
                        -----------------------------------------
Total Dipole Moment    :      2.077169430       0.255942381       1.646853238
                        -----------------------------------------
Magnitude (a.u.)       :      2.663130664
Magnitude (Debye)      :      6.769140195



--------------------
Rotational spectrum 
--------------------
 
Rotational constants in cm-1:             0.021307             0.013003             0.012520 
Rotational constants in MHz :           638.771429           389.812969           375.331998 

Dipole components along the rotational axes: 
x,y,z [a.u.] :    -0.913114    -1.641580     1.887777 
x,y,z [Debye]:    -2.320951    -4.172565     4.798349 

 

-------------
DIPOLE MOMENT
-------------

Method             : TDA/CIS
Type of density    : Electron Density
Level              : Relaxed density
State              :   1
Multiplicity       :   3
Irrep              :   0
Energy             :     0.0000000000000000 Eh
Relativity type    : 
Basis              : AO
                                X                 Y                 Z
Electronic contribution:    -10.333142032      -5.855428993      -1.550396504
Nuclear contribution   :     12.533986076       6.078221766       3.245566249
                        -----------------------------------------
Total Dipole Moment    :      2.200844044       0.222792773       1.695169746
                        -----------------------------------------
Magnitude (a.u.)       :      2.786925115
Magnitude (Debye)      :      7.083800682



--------------------
Rotational spectrum 
--------------------
 
Rotational constants in cm-1:             0.021307             0.013003             0.012520 
Rotational constants in MHz :           638.771429           389.812969           375.331998 

Dipole components along the rotational axes: 
x,y,z [a.u.] :    -1.003461    -1.682865     1.981914 
x,y,z [Debye]:    -2.550596    -4.277503     5.037625 

 

Dipole moment calculation done in   0.2 sec 

Maximum memory used throughout the entire PROP-calculation: 81.9 MB
[1741111698.782383] [ohm:923202:0]        ib_iface.c:1059 UCX  ERROR ibv_create_cq(cqe=256) failed: Connection timed out
[1741111698.790879] [ohm:923199:0]        ib_iface.c:1059 UCX  ERROR ibv_create_cq(cqe=256) failed: Connection timed out
[1741111698.790918] [ohm:923200:0]        ib_iface.c:1059 UCX  ERROR ibv_create_cq(cqe=256) failed: Connection timed out
[1741111698.822997] [ohm:923209:0]        ib_iface.c:1059 UCX  ERROR ibv_create_cq(cqe=256) failed: Connection timed out
[1741111698.837867] [ohm:923204:0]        ib_iface.c:1059 UCX  ERROR ibv_create_cq(cqe=256) failed: Connection timed out
[1741111698.841885] [ohm:923201:0]        ib_iface.c:1059 UCX  ERROR ibv_create_cq(cqe=256) failed: Connection timed out
[1741111698.844978] [ohm:923215:0]        ib_iface.c:1059 UCX  ERROR ibv_create_cq(cqe=256) failed: Connection timed out
[1741111698.856805] [ohm:923206:0]        ib_iface.c:1059 UCX  ERROR ibv_create_cq(cqe=256) failed: Connection timed out
[1741111698.862758] [ohm:923208:0]        ib_iface.c:1059 UCX  ERROR ibv_create_cq(cqe=256) failed: Connection timed out
[1741111698.880672] [ohm:923214:0]        ib_iface.c:1059 UCX  ERROR ibv_create_cq(cqe=256) failed: Connection timed out
[1741111698.886442] [ohm:923221:0]        ib_iface.c:1059 UCX  ERROR ibv_create_cq(cqe=256) failed: Connection timed out
[1741111698.893668] [ohm:923211:0]        ib_iface.c:1059 UCX  ERROR ibv_create_cq(cqe=256) failed: Connection timed out
[1741111698.903902] [ohm:923213:0]        ib_iface.c:1059 UCX  ERROR ibv_create_cq(cqe=256) failed: Connection timed out
[1741111698.909473] [ohm:923210:0]        ib_iface.c:1059 UCX  ERROR ibv_create_cq(cqe=256) failed: Connection timed out
[1741111698.912646] [ohm:923224:0]        ib_iface.c:1059 UCX  ERROR ibv_create_cq(cqe=256) failed: Connection timed out
[1741111698.915868] [ohm:923220:0]        ib_iface.c:1059 UCX  ERROR ibv_create_cq(cqe=256) failed: Connection timed out
[1741111698.963676] [ohm:923212:0]        ib_iface.c:1059 UCX  ERROR ibv_create_cq(cqe=256) failed: Connection timed out
[1741111698.971527] [ohm:923265:0]        ib_iface.c:1059 UCX  ERROR ibv_create_cq(cqe=256) failed: Connection timed out
[1741111698.973290] [ohm:923287:0]        ib_iface.c:1059 UCX  ERROR ibv_create_cq(cqe=256) failed: Connection timed out
[1741111698.975311] [ohm:923218:0]        ib_iface.c:1059 UCX  ERROR ibv_create_cq(cqe=256) failed: Connection timed out
[1741111698.977930] [ohm:923226:0]        ib_iface.c:1059 UCX  ERROR ibv_create_cq(cqe=256) failed: Connection timed out
[1741111698.978394] [ohm:923251:0]        ib_iface.c:1059 UCX  ERROR ibv_create_cq(cqe=256) failed: Connection timed out
[1741111698.991494] [ohm:923207:0]        ib_iface.c:1059 UCX  ERROR ibv_create_cq(cqe=256) failed: Connection timed out
[1741111699.002622] [ohm:923222:0]        ib_iface.c:1059 UCX  ERROR ibv_create_cq(cqe=256) failed: Connection timed out
[1741111699.008032] [ohm:923234:0]        ib_iface.c:1059 UCX  ERROR ibv_create_cq(cqe=256) failed: Connection timed out
[1741111699.008721] [ohm:923217:0]        ib_iface.c:1059 UCX  ERROR ibv_create_cq(cqe=256) failed: Connection timed out
[1741111699.015511] [ohm:923338:0]        ib_iface.c:1059 UCX  ERROR ibv_create_cq(cqe=256) failed: Connection timed out
[1741111699.047285] [ohm:923225:0]        ib_iface.c:1059 UCX  ERROR ibv_create_cq(cqe=256) failed: Connection timed out
[1741111699.049637] [ohm:923318:0]        ib_iface.c:1059 UCX  ERROR ibv_create_cq(cqe=256) failed: Connection timed out
[1741111699.051421] [ohm:923275:0]        ib_iface.c:1059 UCX  ERROR ibv_create_cq(cqe=256) failed: Connection timed out
[1741111699.054596] [ohm:923281:0]        ib_iface.c:1059 UCX  ERROR ibv_create_cq(cqe=256) failed: Connection timed out
[1741111699.064487] [ohm:923310:0]        ib_iface.c:1059 UCX  ERROR ibv_create_cq(cqe=256) failed: Connection timed out
[1741111699.076993] [ohm:923309:0]        ib_iface.c:1059 UCX  ERROR ibv_create_cq(cqe=256) failed: Connection timed out
[1741111699.081771] [ohm:923243:0]        ib_iface.c:1059 UCX  ERROR ibv_create_cq(cqe=256) failed: Connection timed out
[1741111699.083377] [ohm:923203:0]        ib_iface.c:1059 UCX  ERROR ibv_create_cq(cqe=256) failed: Connection timed out
[1741111699.083625] [ohm:923302:0]        ib_iface.c:1059 UCX  ERROR ibv_create_cq(cqe=256) failed: Connection timed out
[1741111699.084016] [ohm:923240:0]        ib_iface.c:1059 UCX  ERROR ibv_create_cq(cqe=256) failed: Connection timed out
[1741111699.089309] [ohm:923228:0]        ib_iface.c:1059 UCX  ERROR ibv_create_cq(cqe=256) failed: Connection timed out
[1741111699.101528] [ohm:923329:0]        ib_iface.c:1059 UCX  ERROR ibv_create_cq(cqe=256) failed: Connection timed out
[1741111699.103232] [ohm:923247:0]        ib_iface.c:1059 UCX  ERROR ibv_create_cq(cqe=256) failed: Connection timed out
[1741111699.105174] [ohm:923292:0]        ib_iface.c:1059 UCX  ERROR ibv_create_cq(cqe=256) failed: Connection timed out
[1741111699.110020] [ohm:923325:0]        ib_iface.c:1059 UCX  ERROR ibv_create_cq(cqe=256) failed: Connection timed out
[1741111699.113320] [ohm:923289:0]        ib_iface.c:1059 UCX  ERROR ibv_create_cq(cqe=256) failed: Connection timed out
[1741111699.120510] [ohm:923304:0]        ib_iface.c:1059 UCX  ERROR ibv_create_cq(cqe=256) failed: Connection timed out
[1741111699.120488] [ohm:923339:0]        ib_iface.c:1059 UCX  ERROR ibv_create_cq(cqe=256) failed: Connection timed out
[1741111699.121349] [ohm:923280:0]        ib_iface.c:1059 UCX  ERROR ibv_create_cq(cqe=256) failed: Connection timed out
[1741111699.122002] [ohm:923219:0]        ib_iface.c:1059 UCX  ERROR ibv_create_cq(cqe=256) failed: Connection timed out
[1741111699.126131] [ohm:923297:0]        ib_iface.c:1059 UCX  ERROR ibv_create_cq(cqe=256) failed: Connection timed out
[1741111699.127638] [ohm:923296:0]        ib_iface.c:1059 UCX  ERROR ibv_create_cq(cqe=256) failed: Connection timed out
[1741111699.138718] [ohm:923229:0]        ib_iface.c:1059 UCX  ERROR ibv_create_cq(cqe=256) failed: Connection timed out
[1741111699.146034] [ohm:923216:0]        ib_iface.c:1059 UCX  ERROR ibv_create_cq(cqe=256) failed: Connection timed out
[1741111699.148467] [ohm:923235:0]        ib_iface.c:1059 UCX  ERROR ibv_create_cq(cqe=256) failed: Connection timed out
[1741111699.148749] [ohm:923343:0]        ib_iface.c:1059 UCX  ERROR ibv_create_cq(cqe=256) failed: Connection timed out
[1741111699.150895] [ohm:923285:0]        ib_iface.c:1059 UCX  ERROR ibv_create_cq(cqe=256) failed: Connection timed out
[1741111699.153672] [ohm:923323:0]        ib_iface.c:1059 UCX  ERROR ibv_create_cq(cqe=256) failed: Connection timed out
[1741111699.155379] [ohm:923205:0]        ib_iface.c:1059 UCX  ERROR ibv_create_cq(cqe=256) failed: Connection timed out
[1741111699.155989] [ohm:923263:0]        ib_iface.c:1059 UCX  ERROR ibv_create_cq(cqe=256) failed: Connection timed out
[1741111699.156287] [ohm:923258:0]        ib_iface.c:1059 UCX  ERROR ibv_create_cq(cqe=256) failed: Connection timed out
[1741111699.159844] [ohm:923223:0]        ib_iface.c:1059 UCX  ERROR ibv_create_cq(cqe=256) failed: Connection timed out
[1741111699.161219] [ohm:923331:0]        ib_iface.c:1059 UCX  ERROR ibv_create_cq(cqe=256) failed: Connection timed out
[1741111699.162305] [ohm:923335:0]        ib_iface.c:1059 UCX  ERROR ibv_create_cq(cqe=256) failed: Connection timed out
[1741111699.165824] [ohm:923273:0]        ib_iface.c:1059 UCX  ERROR ibv_create_cq(cqe=256) failed: Connection timed out
[1741111699.165897] [ohm:923316:0]        ib_iface.c:1059 UCX  ERROR ibv_create_cq(cqe=256) failed: Connection timed out
[1741111699.166026] [ohm:923255:0]        ib_iface.c:1059 UCX  ERROR ibv_create_cq(cqe=256) failed: Connection timed out

--------------------------------
SUGGESTED CITATIONS FOR THIS RUN
--------------------------------

Below you find a list of papers that are relevant to this ORCA run
We neither can nor want to force you to cite these papers, but we appreciate if you do
You receive ORCA, which is the product of decades of hard work by many enthusiastic individuals, for free
The only thing we kindly ask in return is that you cite our papers,
We deeply appreciate it, if you show your appreciation for ORCA by not just citing the generic ORCA reference.

Please note that relegating all ORCA citations to the supporting information does *not* help us.
SI sections are not indexed - citations you put there will not count into any citation statistics
But we need these citations in order to attract the funding resources that allow us to do what we are doing

Therefore, if you are a happy ORCA user, please consider citing a few of the papers listed below in the main body of your paper

In addition to the list printed below, the program has created the file orca.bibtex that contains the list in bibtex format
You can import this file easily into all common literature databanks and citation aid programs


List of essential papers. We consider these as the minimum necessary citations

  1. Neese,F.
     Software update: the ORCA program system, version 5.0
     WIRES Comput. Molec. Sci., 2022 12(1)e1606
     doi.org/10.1002/wcms.1606

List of papers to cite with high priority. The work reported in these papers was absolutely
necessary for this run to complete.
Our perspective: the developers of density functionals and basis sets usually get cited in chemistry papers
Good! But without the algorithms to do something with them, the functionals or basis sets would not do anything.
Hence, in our opinion, the algorithm design and method developments papers are equally worthy of getting cited

  1. Neese,F.; Olbrich,G.
     Efficient use of the resolution of the identity approximation in time-dependent density functional calculations with hybrid density functionals
     Chem. Phys. Lett., 2002 362 170-178
     doi.org/10.1016/s0009-2614(02)01053-9
  2. Neese,F.
     An improvement of the resolution of the identity approximation for the formation of the Coulomb matrix
     J. Comp. Chem., 2003 24(14)1740-1747
     doi.org/10.1002/jcc.10318
  3. Neese,F.; Wennmohs,F.; Hansen,A.; Becker,U.
     Efficient, approximate and parallel Hartree-Fock and hybrid DFT calculations. A 'chain-of-spheres' algorithm for the Hartree-Fock exchange
     Chem. Phys., 2009 356(1-3)98-109
     doi.org/10.1016/j.chemphys.2008.10.036
  4. Petrenko,T.; Kossmann,S.; Neese,F.
     Efficient time-dependent density functional theory approximations for hybrid density functionals: Analytical gradients and parallelization
     J. Chem. Phys., 2011 134 054116
     doi.org/10.1063/1.3533441
  5. Helmich-Paris,B.; de Souza,B.; Neese,F.; Izsák,R.
     An improved chain of spheres for exchange algorithm
     J. Chem. Phys., 2021 155 104109
     doi.org/doi: 10.1063/5.0058766.
  6. Neese,F.
     The SHARK Integral Generation and Digestion System
     J. Comp. Chem., 2022  1-16
     doi.org/10.1002/jcc.26942
  7. Lehtola,S.; Steigemann,C.; Oliveira,M.; Marques,M.
     Recent developments in Libxc - A comprehensive library of functionals for density functional theory
     Software X, 2018 7 
     doi.org/10.1016/j.softx.2017.11.002
  8. Grimme,S.; Antony,J.; Ehrlich,S.; Krieg,H.
     A consistent and accurate ab initio parametrization of density functional dispersion correction (DFT-D) for the 94 elements H-Pu
     J. Chem. Phys., 2010 132 154104-XXXX
     doi.org/10.1063/1.3382344
  9. Grimme,S.; Ehrlich,S.; Goerigk,L.
     Effect of the damping function in dispersion corrected density functional theory
     J. Comput. Chem., 2011 32(7)1456-1465
     doi.org/10.1002/jcc.21759

List of suggested additional citations. These are papers that are important in the 'surrounding' of 
of this run, or papers that preceded the highly important papers. If you like your results we are grateful for a citation.

  1. Izsak,R.; Neese,F.
     An overlap fitted chain of spheres exchange method
     J. Chem. Phys., 2011 135 144105
     doi.org/10.1063/1.3646921
  2. Izsak,R.; Hansen,A.; Neese,F.
     The resolution of identity and chain of spheres approximations for the LPNO-CCSD singles Fock term
     Molec. Phys., 2012 110 2413-2417
     doi.org/10.1080/00268976.2012.687466
  3. Neese,F.
     The ORCA program system
     WIRES Comput. Molec. Sci., 2012 2(1)73-78
     doi.org/10.1002/wcms.81
  4. Izsak,R.; Neese,F.; Klopper,W.
     Robust fitting techniques in the chain of spheres approximation to the Fock exchange: The role of the complementary space
     J. Chem. Phys., 2013 139 
     doi.org/10.1063/1.4819264
  5. Neese,F.
     Software update: the ORCA program system, version 4.0
     WIRES Comput. Molec. Sci., 2018 8(1)1-6
     doi.org/10.1002/wcms.1327
  6. Neese,F.; Wennmohs,F.; Becker,U.; Riplinger,C.
     The ORCA quantum chemistry program package
     J. Chem. Phys., 2020 152 Art. No. L224108
     doi.org/10.1063/5.0004608

List of optional additional citations

  1. Neese,F.
     Approximate second-order SCF convergence for spin unrestricted wavefunctions
     Chem. Phys. Lett., 2000 325(1-3)93-98
     doi.org/10.1016/s0009-2614(00)00662-x

Timings for individual modules:

Sum of individual times          ...      309.643 sec (=   5.161 min)
Startup calculation              ...        6.433 sec (=   0.107 min)   2.1 %
SCF iterations                   ...      133.043 sec (=   2.217 min)  43.0 %
Property integrals               ...        4.341 sec (=   0.072 min)   1.4 %
Property calculations            ...        2.909 sec (=   0.048 min)   0.9 %
CIS module                       ...      162.916 sec (=   2.715 min)  52.6 %
                             ****ORCA TERMINATED NORMALLY****
TOTAL RUN TIME: 0 days 0 hours 5 minutes 11 seconds 735 msec
