30
Properties=species:S:1:pos:R:3:momenta:R:3:forces:R:3 Coordinates=T from=T ORCA-job=T orca=T E=T -908.914928737927=T energy=-24728.40634789377 free_energy=-24728.40634789377 stress="-2.609046925527898e-07 -1.2789521228964077e-06 8.657213826368801e-07 -1.2789521228964077e-06 -1.1080350466205438e-06 3.056758088925478e-07 8.657213826368801e-07 3.056758088925478e-07 3.665051575129779e-07" pbc="F F F"
O        3.04447884       0.97173352      -0.64754819      -0.86237734       0.39601982       0.31447471       0.42796775       0.86395892       0.33294845
O       -1.33065853       0.93631795      -2.32279922       0.17360652      -0.64208261       0.19009010      -0.03879177       0.14122232       1.52127877
O        0.75701091      -2.86275679      -1.62447155      -0.17590663      -1.12594997      -0.89049080       0.07050464      -0.33866468      -0.65164198
O       -3.07051058      -1.21214167       1.38706043       0.19185497      -0.39114653       1.10722023       0.47340999       0.40833156      -0.47190756
N        1.04234003      -2.30576584       0.51696127       0.94233597      -0.08313763      -0.18924639       1.70422066       1.98461677       0.12471150
N       -2.23279551       0.89365239       1.56869877       0.66051356       0.13442455      -0.31235236      -1.13561378      -1.58369334       1.38588941
N        1.87869698      -0.88658663      -1.05908981       0.40872965      -0.15698251      -0.29405203       0.08950956      -0.74049404      -1.29843246
N       -2.02718911      -0.21585890      -0.44596719      -0.42636832       0.30207332      -0.07258623       0.38472073      -0.07772204      -0.33955370
C        2.13885209      -0.24125067       1.21322570       0.10458718       0.73787163       0.11020158       1.30529312       1.58260081      -0.90190964
C       -1.14074957       2.04964129      -0.15840407       0.40510846      -0.38977617      -0.40420020      -0.51358061      -0.90399727      -1.79205277
C        1.48525043      -1.44090243       1.47417907       0.95831282       0.71356879       0.38481096      -2.66742195      -3.03303754       3.69215526
C       -1.58025702       1.93708649       1.16953972      -0.35463659       0.15838164       0.39337391       2.21403497       2.68133476      -1.25160292
C        2.60010372       0.67752464       2.25400625       0.20263192       0.64190410      -0.25594040      -0.26614685      -1.11723603       1.71354671
C       -0.52269501       3.29882119      -0.68602736      -0.71340016       0.56588592      -0.83205627      -0.97468044      -0.14142505       1.52728263
C        2.42456071       0.05075920      -0.12135700       0.22071160       0.25081798       0.11119352      -0.49982202      -0.76072666      -0.94422321
C       -1.48568450       0.95882787      -1.07773025      -0.58760815       0.27523757       0.46334897       0.36786965      -0.01450152      -0.51025773
C        1.23357567      -2.11575025      -0.82157895      -0.45332390      -0.06911382       0.70985155       0.31123015       2.07957152      -0.56968665
C       -2.48759670      -0.27420391       0.85877533       0.49862304      -0.24498423       0.13994787      -0.06016207      -0.48816563      -0.13282713
H        1.13026838      -1.76718071       2.53780717      -0.48351414       0.17405415      -0.16962236       0.77866172       0.73060362      -1.59922351
H       -1.26496737       2.73870884       1.82566399      -0.05133749       0.04787083       0.04307580      -0.41791307      -0.28649530       0.33733709
H        2.22998923       0.32759377       3.29300215       0.09795155      -0.15754430       0.14626742       0.15567072       0.77602900      -1.43064268
H        3.68869219       0.66972245       2.37421414      -0.09683999      -0.23385867      -0.21445873       0.01252044       0.11964842      -0.30920749
H        2.29619572       1.66541145       1.95021173      -0.19316434      -0.18052558      -0.00599218       0.00282633       0.42469843       0.34518705
H        0.08321585       3.15103602      -1.52158664       0.10682009      -0.15680595      -0.16227094       1.02486842      -0.47601240      -0.88573881
H       -1.30050762       3.97497420      -1.05028597      -0.24209949      -0.03772511      -0.22276846      -0.04876139       0.18255274       0.32624367
H        0.01255562       3.71688635       0.17649410      -0.06667940      -0.01121979       0.29586563       0.00350306       0.38687410      -0.54699784
H        0.41695466      -2.98720653       0.73592668       0.02777630      -0.13713807       0.02045200      -1.34418455      -1.77532596       0.66075350
H       -2.41442927       0.89149770       2.54906560      -0.12342971      -0.01415369      -0.07058030      -0.47893616      -0.56219473       0.32205332
H        2.15952239      -0.60537773      -2.01917852      -0.11568716      -0.30818004      -0.22672461      -0.46369569      -0.60353723       0.76434567
H       -1.88387674      -1.07379496      -1.00403460      -0.05319087      -0.05778561      -0.10683198      -0.41710157       0.54118643       0.58217307
