30
Properties=species:S:1:pos:R:3:momenta:R:3:forces:R:3 Coordinates=T from=T ORCA-job=T orca=T E=T -908.931592107915=T energy=-24728.7178772974 free_energy=-24728.7178772974 stress="-1.0147726462271034e-06 4.787982599760431e-07 1.1394007549709848e-06 4.787982599760431e-07 1.70008747914218e-06 2.6092731873575876e-06 1.1394007549709848e-06 2.6092731873575876e-06 2.0697352673626063e-06" pbc="F F F"
O        2.95988846       1.25031012      -0.50119131      -0.16234039       0.15542382       0.67637433       0.19733874      -0.25663244       0.24666773
O       -0.79952605       0.21405430      -2.05922892      -0.09335026      -0.62538236      -0.95930551       0.10165229       0.61611702       1.47745234
O        1.30914512      -2.72585584      -1.75006661      -0.03717054       0.43615283       0.35372445       0.47221306       0.62589485       0.94262598
O       -3.13651243      -1.23612876       1.58684772      -0.73587555       0.21221907      -0.43210345      -0.09989397      -0.70277457      -0.37314176
N        0.59085376      -1.83672998       0.25398105      -0.11163588      -0.17519603       0.55071766       0.35018897      -1.84709976      -1.40277654
N       -2.27036141       0.83676621       1.57142964       0.58172565       0.79289926      -0.18970332       0.13510442       0.23986655       0.03516405
N        2.20329105      -0.78048257      -0.98330650       0.85023220      -0.16321470       0.59023778       0.00212932      -0.23991593       0.33277805
N       -2.07705203      -0.45400576      -0.30496491       0.58323199       0.04901752       0.14588679       1.23060240       0.32211149      -1.20739372
C        1.62314303       0.20637999       1.14160586      -0.95091503      -0.77072626      -0.07836357      -2.66418214      -2.32905194      -0.85914032
C       -0.89518768       1.63738170      -0.17171790       0.15985334       0.53254573       0.34174705       0.53236465       2.86774652       4.97242983
C        0.70943483      -0.90423261       1.21187610      -0.51709644      -0.51950669       1.20170149       1.00029580       1.74533214       1.47464953
C       -1.35545884       1.78113540       1.16867643      -0.09177824      -0.37513336      -1.63490051      -0.57022843      -1.07970717      -3.46892826
C        1.82808606       1.21828487       2.16446591       0.43515535      -0.25674408      -0.49204970       1.30625715       0.87132439       1.66892222
C        0.01398718       2.66875305      -0.70464528       0.20608427      -0.32797472       0.02170684       1.15210339       1.42133283       0.20051729
C        2.26136298       0.29836900      -0.14746569       0.16846909       0.34381954      -1.12677070       1.53101075       1.43846746      -0.61495894
C       -1.14760953       0.45636244      -0.90493003      -0.81294635       0.25428108       0.06340852      -1.93393989      -2.87805300      -2.32100738
C        1.41581473      -1.87121083      -0.86164963      -0.26478725       0.32405756       0.90638688      -1.94767370      -1.14014036      -0.44770830
C       -2.53047067      -0.39067160       0.96861496      -0.45353420       0.01724821      -0.01888572      -0.15494057       1.43946723       1.82436160
H        0.20343067      -1.14874938       2.14868412       0.42797905       0.24413433       0.06243982       0.24098486       0.28204610      -0.20686600
H       -1.19898152       2.61764710       1.89699118       0.18813492      -0.06871474       0.09993924       0.11184359      -0.48727651      -0.98914719
H        1.97593154       2.23739215       1.76932036       0.24632571      -0.39751750      -0.00534608      -0.20693792      -0.49850946      -0.06467712
H        1.04020488       1.23701005       2.92029248       0.27741021       0.03919262      -0.16905847      -0.03581837      -0.11745326      -0.28298111
H        2.75563187       1.06985199       2.78604081       0.02290981       0.08542907       0.06990688      -0.39577873      -0.17603335      -0.59125318
H        0.26993395       2.49428841      -1.73626535      -0.00448743      -0.20638504      -0.15238729      -0.06878455       0.30492449      -0.35358424
H       -0.22155509       3.77051078      -0.45189235       0.13246239      -0.06040365       0.01540903      -0.38457510      -1.22334215      -0.67160985
H        0.98892374       2.62090102      -0.18698584      -0.32576115       0.22825969      -0.00886178      -0.22621254      -0.31151591      -0.15255867
H       -0.01058268      -2.68141989       0.25954069       0.29658470      -0.00770831       0.09507648       0.26791290       0.92534737       0.40093869
H       -2.57160883       0.98359718       2.49889237       0.02460660      -0.02081144      -0.10917716      -0.64052124      -0.66040433       0.63710048
H        2.80400413      -0.83774807      -1.76564552       0.12344380       0.28795587      -0.02390085       0.44608860       0.42200955      -0.59178477
H       -2.30651266      -1.28131515      -0.86656502      -0.16293037      -0.02721733       0.20615088       0.25139625       0.42592214       0.38590958
