30
Properties=species:S:1:pos:R:3:momenta:R:3:forces:R:3 Coordinates=T from=T ORCA-job=T orca=T E=T -908.748819972294=T energy=-24726.731542850175 free_energy=-24726.731542850175 stress="-3.882392144899462e-07 1.2993884781759657e-08 -7.485430851129495e-07 1.2993884781759657e-08 3.467360055708461e-07 -4.2551440140708735e-07 -7.485430851129495e-07 -4.2551440140708735e-07 6.902894393227908e-07" pbc="F F F"
O        2.21424053      -0.19761131      -1.17442730      -0.47990212       0.29231507       0.06964956      -0.14968462       0.08252281       0.09064254
O       -0.13468138       2.71062040      -2.44827191       1.03027931      -0.74613295      -0.71455208       0.58211853      -0.52585088       0.76827126
O        0.29634294      -3.79364421       0.70880222       0.47054198      -0.51593678       0.47397766      -0.14837625       0.23456531       0.10658953
O       -2.13981754      -1.10640861      -1.28300735       0.42911150      -0.24695722       0.02038232      -0.23742896      -0.00490210      -0.52205885
N        0.37701871      -1.89801825       1.95905714       0.33342318      -0.42688359      -0.07010316       0.13526869       0.00972852       0.17068643
N       -1.29281813      -0.18422205       0.56006683       0.99944284       0.00061679       0.24257588      -0.91379902      -0.20677503       0.09138638
N        1.06873915      -1.92140097      -0.27714121      -0.09682481      -0.06637864       0.18432460       0.08321375       0.76486842       0.08587915
N       -0.81278359       0.71148428      -1.61506675       0.62826150       0.20126040      -0.38128806      -0.03818875      -0.52749271      -0.59680142
C        1.17837183       0.22173202       0.92067753       0.02558376      -0.41158344       0.41714500      -0.30886254       0.20554792       1.12186781
C       -0.52377045       2.54227504      -0.12991185      -1.36521764       0.24522973      -0.70389535      -0.32955267       0.85921481       0.00357478
C        0.58440698      -0.51500342       2.14692175       0.30644328      -0.14424084      -0.57022058       0.06936496       0.57558432      -2.07254642
C       -0.28650644       0.42831193       1.29632889      -0.36900195       0.07122147       1.08187430       1.20676421      -0.34881513       1.14501462
C        2.13700693       1.35655146       1.21334523      -0.42912946      -0.09969254      -0.12990771       0.51732132      -0.36142755      -0.48727866
C       -1.47423903       3.46696414       0.45242876      -0.99172154       0.61261491       0.83176549       0.60756559       0.69914187      -0.42276978
C        1.52597848      -0.61064358      -0.26800953      -0.72965700      -0.09112808      -0.39494045       0.30659030      -0.14162379      -0.12303826
C       -0.31671783       2.01957845      -1.44911007      -0.26296600       0.48237041      -0.31677851      -1.81202659       0.30959205      -0.70994834
C        0.53470895      -2.60523050       0.80027302       0.03168570      -0.30959392      -0.22021790       0.15890490      -0.75923409       0.04940217
C       -1.46477126      -0.23347842      -0.80224152       0.32953637       0.22313121       0.22570560       0.37182193       0.24145589       0.55080367
H        0.88683618      -0.17996270       3.11625269      -0.08879100      -0.15289331       0.03821612       0.09709952      -0.02645072       0.20979455
H       -0.45709315       1.36415185       1.79617467      -0.00665565       0.08246693      -0.02411336      -0.28244717       0.12052277      -0.12703901
H        2.34637281       2.02145281       0.35662198       0.03348596      -0.00611422      -0.04826165      -0.21792609      -0.49390532       0.23520166
H        1.82028162       1.97609209       2.03472386      -0.02641338      -0.05161059      -0.02176600      -0.28979984       0.04749278       0.26183117
H        3.05650071       0.85219892       1.50503878      -0.09226619       0.11638140      -0.18917857       0.26847240       0.33443545      -0.04112010
H       -2.48165068       3.05618623       0.50322827      -0.15674562       0.43661956       0.23054797      -0.13552665      -0.36162087       0.08640197
H       -1.18881514       3.77448610       1.47186531       0.24748825       0.27357304       0.00462007      -0.11068317      -0.00696570      -0.27818074
H       -1.59163167       4.39764945      -0.18032977       0.29658250       0.19183123       0.10882786       0.30079106      -0.58741284       0.45982006
H       -0.05604507      -2.39175258       2.70264225      -0.03642878      -0.03992743       0.03822653      -0.17556057      -0.46269736       0.23605576
H       -1.80407047      -0.92852055       1.04814859      -0.06655038      -0.00900139      -0.11434301       0.21877625       0.39914793      -0.49800351
H        1.26610206      -2.44480473      -1.11528906       0.01400421       0.06596753       0.05034862      -0.04692506      -0.13951438       0.10851898
H       -1.06276828       0.51289372      -2.57848890       0.02240117       0.02247524      -0.11862117       0.27271455       0.07086762       0.09704261
