
                                 *****************
                                 * O   R   C   A *
                                 *****************

                                            #,                                       
                                            ###                                      
                                            ####                                     
                                            #####                                    
                                            ######                                   
                                           ########,                                 
                                     ,,################,,,,,                         
                               ,,#################################,,                 
                          ,,##########################################,,             
                       ,#########################################, ''#####,          
                    ,#############################################,,   '####,        
                  ,##################################################,,,,####,       
                ,###########''''           ''''###############################       
              ,#####''   ,,,,##########,,,,          '''####'''          '####       
            ,##' ,,,,###########################,,,                        '##       
           ' ,,###''''                  '''############,,,                           
         ,,##''                                '''############,,,,        ,,,,,,###''
      ,#''                                            '''#######################'''  
     '                                                          ''''####''''         
             ,#######,   #######,   ,#######,      ##                                
            ,#'     '#,  ##    ##  ,#'     '#,    #''#        ,####,   ,####,        
            ##       ##  ##   ,#'  ##            #'  '#       #'       #'  '#        
            ##       ##  #######   ##           ,######,      #####,   #    #        
            '#,     ,#'  ##    ##  '#,     ,#' ,#      #,     #,   #   #,  ,#        
             '#######'   ##     ##  '#######'  #'      '#     '####' # '####'        



                #########################################################
                #                        -***-                          #
                #          Department of theory and spectroscopy        #
                #                                                       #
                #                      Frank Neese                      #
                #                                                       #
                #     Directorship, Architecture, Infrastructure        #
                #                    SHARK, DRIVERS                     #
                #        Core code/Algorithms in most modules           #
                #                                                       #
                #        Max Planck Institute fuer Kohlenforschung      #
                #                Kaiser Wilhelm Platz 1                 #
                #                 D-45470 Muelheim/Ruhr                 #
                #                      Germany                          #
                #                                                       #
                #                  All rights reserved                  #
                #                        -***-                          #
                #########################################################


                         Program Version 6.0.0  -   RELEASE  -


 With contributions from (in alphabetic order):
   Daniel Aravena         : Magnetic Suceptibility
   Michael Atanasov       : Ab Initio Ligand Field Theory (pilot matlab implementation)
   Alexander A. Auer      : GIAO ZORA, VPT2 properties, NMR spectrum
   Ute Becker             : All parallelization in ORCA, NUMFREQ, NUMCALC
   Giovanni Bistoni       : ED, misc. LED, open-shell LED, HFLD
   Martin Brehm           : Molecular dynamics
   Dmytro Bykov           : pre 5.0 version of the SCF Hessian
   Marcos Casanova-Páez   : Triplet and SCS-CIS(D). UHF-(DLPNO)-IP/EA/STEOM-CCSD. UHF-CVS-IP/STEOM-CCSD
   Vijay G. Chilkuri      : MRCI spin determinant printing, contributions to CSF-ICE
   Pauline Colinet        : FMM embedding
   Dipayan Datta          : RHF DLPNO-CCSD density
   Achintya Kumar Dutta   : EOM-CC, STEOM-CC
   Nicolas Foglia         : Exact transition moments, OPA infrastructure, MCD improvements
   Dmitry Ganyushin       : Spin-Orbit,Spin-Spin,Magnetic field MRCI
   Miquel Garcia          : C-PCM and meta-GGA Hessian, CCSD/C-PCM, Gaussian charge scheme
   Tiago L. C. Gouveia    : GS-ROHF, GS-ROCIS
   Yang Guo               : DLPNO-NEVPT2, F12-NEVPT2, CIM, IAO-localization
   Andreas Hansen         : Spin unrestricted coupled pair/coupled cluster methods
   Ingolf Harden          : AUTO-CI MPn and infrastructure 
   Benjamin Helmich-Paris : MC-RPA, TRAH-(SCF,CASSCF), AVAS, COSX integrals, SCF dyn. polar.
   Lee Huntington         : MR-EOM, pCC
   Robert Izsak           : Overlap fitted RIJCOSX, COSX-SCS-MP3, EOM
   Riya Kayal             : Wick's Theorem for AUTO-CI, AUTO-CI UHF-CCSDT
   Emily Kempfer          : AUTO-CI, RHF CISDT and CCSDT
   Christian Kollmar      : KDIIS, OOCD, Brueckner-CCSD(T), CCSD density, CASPT2, CASPT2-K, improved NEVPT2
   Axel Koslowski         : Symmetry handling
   Simone Kossmann        : Meta GGA functionals, TD-DFT gradient, OOMP2, (MP2 Hessian; deprecated post 5.0)
   Lucas Lang             : DCDCAS
   Marvin Lechner         : AUTO-CI (C++ implementation), FIC-MRCC
   Spencer Leger          : CASSCF response
   Dagmar Lenk            : GEPOL surface, SMD, ORCA-2-JSON
   Dimitrios Liakos       : Extrapolation schemes; Compound Job, initial MDCI parallelization
   Dimitrios Manganas     : Further ROCIS development; embedding schemes. LFT, Crystal Embedding
   Dimitrios Pantazis     : SARC Basis sets
   Anastasios Papadopoulos: AUTO-CI, single reference methods and gradients
   Taras Petrenko         : pre 6.0 DFT Hessian and TD-DFT gradient, (ASA, deprecated), ECA, 1-Electron XAS/XES, NRVS
   Peter Pinski           : DLPNO-MP2, DLPNO-MP2 Gradient
   Christoph Reimann      : Effective Core Potentials
   Marius Retegan         : Local ZFS, SOC
   Christoph Riplinger    : Optimizer, TS searches, QM/MM, DLPNO-CCSD(T), (RO)-DLPNO pert. Triples
   Michael Roemelt        : Original ROCIS implementation
   Masaaki Saitow         : Open-shell DLPNO-CCSD energy and density
   Barbara Sandhoefer     : DKH picture change effects
   Kantharuban Sivalingam : CASSCF convergence/infrastructure, NEVPT2 and variants, FIC-MRCI
   Bernardo de Souza      : ESD, SOC TD-DFT
   Georgi Stoychev        : AutoAux, RI-MP2 NMR, DLPNO-MP2 response, X2C
   Van Anh Tran           : RI-MP2 g-tensors
   Willem Van den Heuvel  : Paramagnetic NMR
   Zikuan Wang            : NOTCH, Electric field optimization 
   Frank Wennmohs         : Technical directorship and infrastructure
   Hang Xu                : AUTO-CI-Response properties 


 We gratefully acknowledge several colleagues who have allowed us to
 interface, adapt or use parts of their codes:
   Stefan Grimme, W. Hujo, H. Kruse, P. Pracht,  : VdW corrections, initial TS optimization,
                  C. Bannwarth, S. Ehlert,         DFT functionals, gCP, sTDA/sTD-DF
                  L. Wittmann, M. Mueller
   Ed Valeev, F. Pavosevic, A. Kumar             : LibInt (2-el integral package), F12 methods
   Garnet Chan, S. Sharma, J. Yang, R. Olivares  : DMRG
   Ulf Ekstrom                                   : XCFun DFT Library
   Mihaly Kallay                                 : mrcc  (arbitrary order and MRCC methods)
   Frank Weinhold                                : gennbo (NPA and NBO analysis)
   Simon Mueller                                 : openCOSMO-RS
   Christopher J. Cramer and Donald G. Truhlar   : smd solvation model
   Lars Goerigk                                  : TD-DFT with DH, B97 family of functionals
   V. Asgeirsson, H. Jonsson                     : NEB implementation
   FAccTs GmbH                                   : IRC, NEB, NEB-TS, DLPNO-Multilevel, CI-OPT
                                                   MM, QMMM, 2- and 3-layer-ONIOM, Crystal-QMMM,
                                                   LR-CPCM, SF, NACMEs, symmetry and pop. for TD-DFT,
                                                   nearIR, NL-DFT gradient (VV10), updates on ESD,
                                                   ML-optimized integration grids, MBIS, APM,
                                                   GOAT, DOCKER, SOLVATOR, interface openCOSMO-RS
   S Lehtola, MJT Oliveira, MAL Marques          : LibXC Library
   Liviu Ungur et al                             : ANISO software


 Your calculation uses the libint2 library for the computation of 2-el integrals
 For citations please refer to: http://libint.valeyev.net

 Your ORCA version has been built with support for libXC version: 6.2.2
 For citations please refer to: https://libxc.gitlab.io

 This ORCA versions uses:
   CBLAS   interface :  Fast vector & matrix operations
   LAPACKE interface :  Fast linear algebra routines
   SCALAPACK package :  Parallel linear algebra routines
   Shared memory     :  Shared parallel matrices
   BLAS/LAPACK       :  OpenBLAS 0.3.27  USE64BITINT DYNAMIC_ARCH NO_AFFINITY Zen SINGLE_THREADED
        Core in use  :  Zen
   Copyright (c) 2011-2014, The OpenBLAS Project


Your calculation utilizes the atom-pairwise dispersion correction
with the Becke-Johnson damping scheme (D3BJ)


Warning: RI is on but no J-basis has been assigned. Assigning Def2/J (nothing to worry about!)
================================================================================

----- Orbital basis set information -----
Your calculation utilizes the basis: def2-TZVPPD
   F. Weigend and R. Ahlrichs, Phys. Chem. Chem. Phys. 7, 3297 (2005).
   D. Rappoport and F. Furche, J. Chem. Phys. 133, 134105 (2010)
   D. Rappoport, J. Chem. Phys. 155, 124102 (2021).

----- AuxJ basis set information -----
Your calculation utilizes the auxiliary basis: def2/J
   F. Weigend, Phys. Chem. Chem. Phys. 8, 1057 (2006).

================================================================================
                                        WARNINGS
                       Please study these warnings very carefully!
================================================================================

Using LibXC functional ID 531 : wB97M-V exchange-correlation functional
[ 1]  N. Mardirossian and M. Head-Gordon.,  J. Chem. Phys. 144, 214110 (2016)
Using LibXC functional ID 531 : wB97M-V exchange-correlation functional
[ 1]  N. Mardirossian and M. Head-Gordon.,  J. Chem. Phys. 144, 214110 (2016)

WARNING: B97M-V or wB97M-V functional requested.
  ===> : libXC variant has now been activated.
         Any manually given DFX/HFX/RangeSep scaling parameters are IGNORED!

Your calculation utilizes LibXC
 by S Lehtola, C Steigemann, MJT Oliveira & MAL Marques
Please cite in your paper:
 S Lehtola, C Steigemann, MJT Oliveira & MAL Marques, SoftwareX, 7, (2018), 1.
   


WARNING: your system is open-shell and RHF/RKS was chosen
  ===> : WILL SWITCH to UHF/UKS

INFO   : Checking CIS options ...

WARNING: CIS/ROCIS methods need fully converged wavefunctions
  ===> : Setting SCFConvForced true
         You can overwrite this default with %scf ConvForced false 


================================================================================
                                       INPUT FILE
================================================================================
NAME = orca.inp
|  1> ! Engrad def2-TZVPPD wB97M-D3BJ 
|  2> %pal nprocs 8 end%pal nprocs 64 end 
|  3> %tddft Nroots 2 Iroot 2 
|  4> sf true 
|  5> end 
|  6> *xyz 0 3 
|  7> O   3.18057314 1.04352909 -0.49230242
|  8> O   -0.9244891 0.46677421 -2.07827636
|  9> O   1.3407889 -2.90068306 -1.73756567
| 10> O   -3.11842253 -1.15249333 1.62992972
| 11> N   0.64159645 -2.03383745 0.27598249
| 12> N   -2.33466022 1.00997062 1.66048914
| 13> N   2.30313349 -0.97106523 -1.06825926
| 14> N   -2.04711431 -0.34884912 -0.25977506
| 15> C   1.56613484 0.0845485 0.97817138
| 16> C   -1.01463964 1.86900387 -0.12054142
| 17> C   0.70580182 -1.0157646 1.18761285
| 18> C   -1.59382276 2.01583468 1.18546292
| 19> C   1.87205848 0.95665879 2.10797292
| 20> C   -0.02179863 2.90033853 -0.6831407
| 21> C   2.37162355 0.14006472 -0.21933445
| 22> C   -1.30019856 0.67945732 -0.94365838
| 23> C   1.43222996 -2.02462489 -0.87899255
| 24> C   -2.54522814 -0.27055047 1.02709302
| 25> H   0.36611459 -1.20707129 2.14049983
| 26> H   -1.40565882 2.87857127 1.85594575
| 27> H   2.44322254 1.76067756 1.66092594
| 28> H   1.02229938 1.33543221 2.57380633
| 29> H   2.51309774 0.41567642 2.81250176
| 30> H   0.00898869 2.7348541 -1.77577897
| 31> H   -0.25901358 3.94764192 -0.43101968
| 32> H   1.02752403 2.75233347 -0.31036806
| 33> H   0.32333018 -2.93979603 0.63908151
| 34> H   -2.64355323 0.99998828 2.6252855
| 35> H   2.82258332 -0.93643881 -1.88575684
| 36> H   -1.99743492 -1.27754989 -0.55748581
| 37> *
| 38> 
| 39>                          ****END OF INPUT****
================================================================================

                     *******************************
                     * Energy+Gradient Calculation *
                     *******************************

---------------------------------
CARTESIAN COORDINATES (ANGSTROEM)
---------------------------------
  O      3.180573    1.043529   -0.492302
  O     -0.924489    0.466774   -2.078276
  O      1.340789   -2.900683   -1.737566
  O     -3.118423   -1.152493    1.629930
  N      0.641596   -2.033837    0.275982
  N     -2.334660    1.009971    1.660489
  N      2.303133   -0.971065   -1.068259
  N     -2.047114   -0.348849   -0.259775
  C      1.566135    0.084548    0.978171
  C     -1.014640    1.869004   -0.120541
  C      0.705802   -1.015765    1.187613
  C     -1.593823    2.015835    1.185463
  C      1.872058    0.956659    2.107973
  C     -0.021799    2.900339   -0.683141
  C      2.371624    0.140065   -0.219334
  C     -1.300199    0.679457   -0.943658
  C      1.432230   -2.024625   -0.878993
  C     -2.545228   -0.270550    1.027093
  H      0.366115   -1.207071    2.140500
  H     -1.405659    2.878571    1.855946
  H      2.443223    1.760678    1.660926
  H      1.022299    1.335432    2.573806
  H      2.513098    0.415676    2.812502
  H      0.008989    2.734854   -1.775779
  H     -0.259014    3.947642   -0.431020
  H      1.027524    2.752333   -0.310368
  H      0.323330   -2.939796    0.639082
  H     -2.643553    0.999988    2.625285
  H      2.822583   -0.936439   -1.885757
  H     -1.997435   -1.277550   -0.557486

----------------------------
CARTESIAN COORDINATES (A.U.)
----------------------------
  NO LB      ZA    FRAG     MASS         X           Y           Z
   0 O     8.0000    0    15.999    6.010412    1.971984   -0.930317
   1 O     8.0000    0    15.999   -1.747031    0.882075   -3.927373
   2 O     8.0000    0    15.999    2.533724   -5.481497   -3.283523
   3 O     8.0000    0    15.999   -5.892965   -2.177897    3.080121
   4 N     7.0000    0    14.007    1.212442   -3.843396    0.521531
   5 N     7.0000    0    14.007   -4.411868    1.908568    3.137870
   6 N     7.0000    0    14.007    4.352292   -1.835047   -2.018717
   7 N     7.0000    0    14.007   -3.868485   -0.659229   -0.490904
   8 C     6.0000    0    12.011    2.959566    0.159774    1.848476
   9 C     6.0000    0    12.011   -1.917391    3.531905   -0.227790
  10 C     6.0000    0    12.011    1.333772   -1.919517    2.244263
  11 C     6.0000    0    12.011   -3.011889    3.809375    2.240200
  12 C     6.0000    0    12.011    3.537678    1.807823    3.983492
  13 C     6.0000    0    12.011   -0.041193    5.480846   -1.290949
  14 C     6.0000    0    12.011    4.481719    0.264684   -0.414482
  15 C     6.0000    0    12.011   -2.457019    1.283988   -1.783256
  16 C     6.0000    0    12.011    2.706522   -3.825987   -1.661055
  17 C     6.0000    0    12.011   -4.809784   -0.511266    1.940925
  18 H     1.0000    0     1.008    0.691856   -2.281034    4.044958
  19 H     1.0000    0     1.008   -2.656310    5.439711    3.507229
  20 H     1.0000    0     1.008    4.617021    3.327198    3.138695
  21 H     1.0000    0     1.008    1.931866    2.523601    4.863789
  22 H     1.0000    0     1.008    4.749066    0.785515    5.314858
  23 H     1.0000    0     1.008    0.016986    5.168125   -3.355736
  24 H     1.0000    0     1.008   -0.489465    7.459962   -0.814509
  25 H     1.0000    0     1.008    1.941739    5.201156   -0.586511
  26 H     1.0000    0     1.008    0.611005   -5.555409    1.207689
  27 H     1.0000    0     1.008   -4.995592    1.889704    4.961071
  28 H     1.0000    0     1.008    5.333909   -1.769613   -3.563564
  29 H     1.0000    0     1.008   -3.774605   -2.414219   -1.053496

--------------------------------
INTERNAL COORDINATES (ANGSTROEM)
--------------------------------
 O      0   0   0     0.000000000000     0.00000000     0.00000000
 O      1   0   0     4.438411373931     0.00000000     0.00000000
 O      2   1   0     4.072755413334    64.09509310     0.00000000
 O      2   1   3     4.602842990274   101.46018050    78.22128081
 N      3   2   1     2.301014468958    65.96537166    71.65724773
 N      4   2   1     2.300319015219    61.15677692    66.21822365
 N      3   2   1     2.257765078617    63.59079794     0.98344895
 N      2   1   3     2.287460547566   102.48451425    77.98699479
 C      1   2   3     2.385025784555    62.74144142   285.04959045
 C      6   4   2     2.377490759579   121.25758880   354.19422383
 C      5   3   2     1.368087925068   148.12333308   292.88703304
 C      6   4   2     1.336507597818   153.08072421   346.23064028
 C      9   1   2     1.459663369144    95.45768626   228.04383403
 C     10   6   4     1.538149018110   151.00324336   199.11473325
 C      1   2   3     1.243044174463    51.83832312   318.20535224
 C      2   1   3     1.213980915893    85.95766161   107.48554718
 C      3   2   1     1.230035441385    60.71577254    37.26133387
 C      4   2   1     1.212347765247    28.13030276    67.21912172
 H     11   5   3     1.029552942066   117.57914276   197.25865796
 H     12   6   4     1.108723282594   117.69505710   197.19260506
 H     13   9   1     1.082832197654   103.56988849    15.50559035
 H     13   9   1     1.040461723277   113.13356913   134.80840366
 H     13   9   1     1.095424184462   108.98950859   259.71677237
 H     14  10   6     1.105527631818   106.20700468   190.53880884
 H     14  10   6     1.103032334945   114.46958088   314.60917960
 H     14  10   6     1.123362356369   113.15507374    74.18128193
 H      5   3   2     1.026594012071    94.08610775   132.53347425
 H      6   4   2     1.013087634417    84.23218868   185.46473594
 H      7   3   2     0.969190078444    90.51187972   256.96666853
 H      8   2   1     0.976516693485    94.11554152   259.94923465

---------------------------
INTERNAL COORDINATES (A.U.)
---------------------------
 O      0   0   0     0.000000000000     0.00000000     0.00000000
 O      1   0   0     8.387381966410     0.00000000     0.00000000
 O      2   1   0     7.696392341646    64.09509310     0.00000000
 O      2   1   3     8.698112689058   101.46018050    78.22128081
 N      3   2   1     4.348287176520    65.96537166    71.65724773
 N      4   2   1     4.346972959415    61.15677692    66.21822365
 N      3   2   1     4.266557673318    63.59079794     0.98344895
 N      2   1   3     4.322673977049   102.48451425    77.98699479
 C      1   2   3     4.507045555149    62.74144142   285.04959045
 C      6   4   2     4.492806421533   121.25758880   354.19422383
 C      5   3   2     2.585311505504   148.12333308   292.88703304
 C      6   4   2     2.525633335782   153.08072421   346.23064028
 C      9   1   2     2.758364015399    95.45768626   228.04383403
 C     10   6   4     2.906680397387   151.00324336   199.11473325
 C      1   2   3     2.349013062101    51.83832312   318.20535224
 C      2   1   3     2.294091462844    85.95766161   107.48554718
 C      3   2   1     2.324430119235    60.71577254    37.26133387
 C      4   2   1     2.291005255388    28.13030276    67.21912172
 H     11   5   3     1.945573100878   117.57914276   197.25865796
 H     12   6   4     2.095183362405   117.69505710   197.19260506
 H     13   9   1     2.046256302557   103.56988849    15.50559035
 H     13   9   1     1.966187709820   113.13356913   134.80840366
 H     13   9   1     2.070051709107   108.98950859   259.71677237
 H     14  10   6     2.089144457619   106.20700468   190.53880884
 H     14  10   6     2.084429029906   114.46958088   314.60917960
 H     14  10   6     2.122847202694   113.15507374    74.18128193
 H      5   3   2     1.939981533538    94.08610775   132.53347425
 H      6   4   2     1.914458178710    84.23218868   185.46473594
 H      7   3   2     1.831503819973    90.51187972   256.96666853
 H      8   2   1     1.845349115889    94.11554152   259.94923465

---------------------
BASIS SET INFORMATION
---------------------
There are 4 groups of distinct atoms

 Group   1 Type O   : 12s7p3d1f contracted to 6s4p3d1f pattern {621111/4111/111/1}
 Group   2 Type N   : 12s6p3d1f contracted to 6s3p3d1f pattern {621111/411/111/1}
 Group   3 Type C   : 12s6p3d1f contracted to 6s3p3d1f pattern {621111/411/111/1}
 Group   4 Type H   : 5s3p1d contracted to 3s3p1d pattern {311/111/1}

Atom   0O    basis set group =>   1
Atom   1O    basis set group =>   1
Atom   2O    basis set group =>   1
Atom   3O    basis set group =>   1
Atom   4N    basis set group =>   2
Atom   5N    basis set group =>   2
Atom   6N    basis set group =>   2
Atom   7N    basis set group =>   2
Atom   8C    basis set group =>   3
Atom   9C    basis set group =>   3
Atom  10C    basis set group =>   3
Atom  11C    basis set group =>   3
Atom  12C    basis set group =>   3
Atom  13C    basis set group =>   3
Atom  14C    basis set group =>   3
Atom  15C    basis set group =>   3
Atom  16C    basis set group =>   3
Atom  17C    basis set group =>   3
Atom  18H    basis set group =>   4
Atom  19H    basis set group =>   4
Atom  20H    basis set group =>   4
Atom  21H    basis set group =>   4
Atom  22H    basis set group =>   4
Atom  23H    basis set group =>   4
Atom  24H    basis set group =>   4
Atom  25H    basis set group =>   4
Atom  26H    basis set group =>   4
Atom  27H    basis set group =>   4
Atom  28H    basis set group =>   4
Atom  29H    basis set group =>   4
---------------------------------
AUXILIARY/J BASIS SET INFORMATION
---------------------------------
There are 4 groups of distinct atoms

 Group   1 Type O   : 12s5p4d2f1g contracted to 6s4p3d1f1g pattern {711111/2111/211/2/1}
 Group   2 Type N   : 12s5p4d2f1g contracted to 6s4p3d1f1g pattern {711111/2111/211/2/1}
 Group   3 Type C   : 12s5p4d2f1g contracted to 6s4p3d1f1g pattern {711111/2111/211/2/1}
 Group   4 Type H   : 5s2p1d contracted to 3s1p1d pattern {311/2/1}

Atom   0O    basis set group =>   1
Atom   1O    basis set group =>   1
Atom   2O    basis set group =>   1
Atom   3O    basis set group =>   1
Atom   4N    basis set group =>   2
Atom   5N    basis set group =>   2
Atom   6N    basis set group =>   2
Atom   7N    basis set group =>   2
Atom   8C    basis set group =>   3
Atom   9C    basis set group =>   3
Atom  10C    basis set group =>   3
Atom  11C    basis set group =>   3
Atom  12C    basis set group =>   3
Atom  13C    basis set group =>   3
Atom  14C    basis set group =>   3
Atom  15C    basis set group =>   3
Atom  16C    basis set group =>   3
Atom  17C    basis set group =>   3
Atom  18H    basis set group =>   4
Atom  19H    basis set group =>   4
Atom  20H    basis set group =>   4
Atom  21H    basis set group =>   4
Atom  22H    basis set group =>   4
Atom  23H    basis set group =>   4
Atom  24H    basis set group =>   4
Atom  25H    basis set group =>   4
Atom  26H    basis set group =>   4
Atom  27H    basis set group =>   4
Atom  28H    basis set group =>   4
Atom  29H    basis set group =>   4
[1739918246.194166] [ohm:550087:0]        ib_iface.c:1059 UCX  ERROR ibv_create_cq(cqe=256) failed: Connection timed out
[1739918246.223695] [ohm:550086:0]        ib_iface.c:1059 UCX  ERROR ibv_create_cq(cqe=256) failed: Connection timed out
[1739918246.225421] [ohm:550085:0]        ib_iface.c:1059 UCX  ERROR ibv_create_cq(cqe=256) failed: Connection timed out
[1739918246.230828] [ohm:550083:0]        ib_iface.c:1059 UCX  ERROR ibv_create_cq(cqe=256) failed: Connection timed out
[1739918246.231517] [ohm:550084:0]        ib_iface.c:1059 UCX  ERROR ibv_create_cq(cqe=256) failed: Connection timed out
[1739918246.248177] [ohm:550095:0]        ib_iface.c:1059 UCX  ERROR ibv_create_cq(cqe=256) failed: Connection timed out
[1739918246.254741] [ohm:550092:0]        ib_iface.c:1059 UCX  ERROR ibv_create_cq(cqe=256) failed: Connection timed out
[1739918246.262280] [ohm:550089:0]        ib_iface.c:1059 UCX  ERROR ibv_create_cq(cqe=256) failed: Connection timed out
[1739918246.290752] [ohm:550172:0]        ib_iface.c:1059 UCX  ERROR ibv_create_cq(cqe=256) failed: Connection timed out
[1739918246.303913] [ohm:550093:0]        ib_iface.c:1059 UCX  ERROR ibv_create_cq(cqe=256) failed: Connection timed out
[1739918246.308652] [ohm:550091:0]        ib_iface.c:1059 UCX  ERROR ibv_create_cq(cqe=256) failed: Connection timed out
[1739918246.317810] [ohm:550094:0]        ib_iface.c:1059 UCX  ERROR ibv_create_cq(cqe=256) failed: Connection timed out
[1739918246.332221] [ohm:550177:0]        ib_iface.c:1059 UCX  ERROR ibv_create_cq(cqe=256) failed: Connection timed out
[1739918246.345182] [ohm:550212:0]        ib_iface.c:1059 UCX  ERROR ibv_create_cq(cqe=256) failed: Connection timed out
[1739918246.348396] [ohm:550163:0]        ib_iface.c:1059 UCX  ERROR ibv_create_cq(cqe=256) failed: Connection timed out
[1739918246.355251] [ohm:550181:0]        ib_iface.c:1059 UCX  ERROR ibv_create_cq(cqe=256) failed: Connection timed out
[1739918246.357678] [ohm:550168:0]        ib_iface.c:1059 UCX  ERROR ibv_create_cq(cqe=256) failed: Connection timed out
[1739918246.365074] [ohm:550162:0]        ib_iface.c:1059 UCX  ERROR ibv_create_cq(cqe=256) failed: Connection timed out
[1739918246.370911] [ohm:550216:0]        ib_iface.c:1059 UCX  ERROR ibv_create_cq(cqe=256) failed: Connection timed out
[1739918246.371759] [ohm:550142:0]        ib_iface.c:1059 UCX  ERROR ibv_create_cq(cqe=256) failed: Connection timed out
[1739918246.374420] [ohm:550103:0]        ib_iface.c:1059 UCX  ERROR ibv_create_cq(cqe=256) failed: Connection timed out
[1739918246.374454] [ohm:550114:0]        ib_iface.c:1059 UCX  ERROR ibv_create_cq(cqe=256) failed: Connection timed out
[1739918246.375925] [ohm:550195:0]        ib_iface.c:1059 UCX  ERROR ibv_create_cq(cqe=256) failed: Connection timed out
[1739918246.383550] [ohm:550136:0]        ib_iface.c:1059 UCX  ERROR ibv_create_cq(cqe=256) failed: Connection timed out
[1739918246.385439] [ohm:550101:0]        ib_iface.c:1059 UCX  ERROR ibv_create_cq(cqe=256) failed: Connection timed out
[1739918246.390252] [ohm:550207:0]        ib_iface.c:1059 UCX  ERROR ibv_create_cq(cqe=256) failed: Connection timed out
[1739918246.394867] [ohm:550096:0]        ib_iface.c:1059 UCX  ERROR ibv_create_cq(cqe=256) failed: Connection timed out
[1739918246.405063] [ohm:550108:0]        ib_iface.c:1059 UCX  ERROR ibv_create_cq(cqe=256) failed: Connection timed out
[1739918246.413041] [ohm:550157:0]        ib_iface.c:1059 UCX  ERROR ibv_create_cq(cqe=256) failed: Connection timed out
[1739918246.425578] [ohm:550220:0]        ib_iface.c:1059 UCX  ERROR ibv_create_cq(cqe=256) failed: Connection timed out
[1739918246.425654] [ohm:550170:0]        ib_iface.c:1059 UCX  ERROR ibv_create_cq(cqe=256) failed: Connection timed out
[1739918246.432108] [ohm:550211:0]        ib_iface.c:1059 UCX  ERROR ibv_create_cq(cqe=256) failed: Connection timed out
[1739918246.447128] [ohm:550204:0]        ib_iface.c:1059 UCX  ERROR ibv_create_cq(cqe=256) failed: Connection timed out
[1739918246.458149] [ohm:550169:0]        ib_iface.c:1059 UCX  ERROR ibv_create_cq(cqe=256) failed: Connection timed out
[1739918246.459372] [ohm:550218:0]        ib_iface.c:1059 UCX  ERROR ibv_create_cq(cqe=256) failed: Connection timed out
[1739918246.463583] [ohm:550231:0]        ib_iface.c:1059 UCX  ERROR ibv_create_cq(cqe=256) failed: Connection timed out
[1739918246.471529] [ohm:550147:0]        ib_iface.c:1059 UCX  ERROR ibv_create_cq(cqe=256) failed: Connection timed out
[1739918246.472677] [ohm:550131:0]        ib_iface.c:1059 UCX  ERROR ibv_create_cq(cqe=256) failed: Connection timed out
[1739918246.472850] [ohm:550154:0]        ib_iface.c:1059 UCX  ERROR ibv_create_cq(cqe=256) failed: Connection timed out
[1739918246.477026] [ohm:550102:0]        ib_iface.c:1059 UCX  ERROR ibv_create_cq(cqe=256) failed: Connection timed out
[1739918246.488667] [ohm:550128:0]        ib_iface.c:1059 UCX  ERROR ibv_create_cq(cqe=256) failed: Connection timed out
[1739918246.488797] [ohm:550203:0]        ib_iface.c:1059 UCX  ERROR ibv_create_cq(cqe=256) failed: Connection timed out
[1739918246.490155] [ohm:550105:0]        ib_iface.c:1059 UCX  ERROR ibv_create_cq(cqe=256) failed: Connection timed out
[1739918246.496117] [ohm:550109:0]        ib_iface.c:1059 UCX  ERROR ibv_create_cq(cqe=256) failed: Connection timed out
[1739918246.496604] [ohm:550224:0]        ib_iface.c:1059 UCX  ERROR ibv_create_cq(cqe=256) failed: Connection timed out
[1739918246.499356] [ohm:550133:0]        ib_iface.c:1059 UCX  ERROR ibv_create_cq(cqe=256) failed: Connection timed out
[1739918246.499882] [ohm:550104:0]        ib_iface.c:1059 UCX  ERROR ibv_create_cq(cqe=256) failed: Connection timed out
[1739918246.500015] [ohm:550098:0]        ib_iface.c:1059 UCX  ERROR ibv_create_cq(cqe=256) failed: Connection timed out
[1739918246.501021] [ohm:550111:0]        ib_iface.c:1059 UCX  ERROR ibv_create_cq(cqe=256) failed: Connection timed out
[1739918246.503747] [ohm:550198:0]        ib_iface.c:1059 UCX  ERROR ibv_create_cq(cqe=256) failed: Connection timed out
[1739918246.507813] [ohm:550121:0]        ib_iface.c:1059 UCX  ERROR ibv_create_cq(cqe=256) failed: Connection timed out
[1739918246.512068] [ohm:550106:0]        ib_iface.c:1059 UCX  ERROR ibv_create_cq(cqe=256) failed: Connection timed out
[1739918246.513518] [ohm:550100:0]        ib_iface.c:1059 UCX  ERROR ibv_create_cq(cqe=256) failed: Connection timed out
[1739918246.513794] [ohm:550187:0]        ib_iface.c:1059 UCX  ERROR ibv_create_cq(cqe=256) failed: Connection timed out
[1739918246.514633] [ohm:550107:0]        ib_iface.c:1059 UCX  ERROR ibv_create_cq(cqe=256) failed: Connection timed out
[1739918246.515390] [ohm:550120:0]        ib_iface.c:1059 UCX  ERROR ibv_create_cq(cqe=256) failed: Connection timed out
[1739918246.515657] [ohm:550097:0]        ib_iface.c:1059 UCX  ERROR ibv_create_cq(cqe=256) failed: Connection timed out
[1739918246.517255] [ohm:550226:0]        ib_iface.c:1059 UCX  ERROR ibv_create_cq(cqe=256) failed: Connection timed out
[1739918246.518521] [ohm:550090:0]        ib_iface.c:1059 UCX  ERROR ibv_create_cq(cqe=256) failed: Connection timed out
[1739918246.520336] [ohm:550112:0]        ib_iface.c:1059 UCX  ERROR ibv_create_cq(cqe=256) failed: Connection timed out
[1739918246.522513] [ohm:550088:0]        ib_iface.c:1059 UCX  ERROR ibv_create_cq(cqe=256) failed: Connection timed out
[1739918246.542052] [ohm:550188:0]        ib_iface.c:1059 UCX  ERROR ibv_create_cq(cqe=256) failed: Connection timed out
[1739918246.547914] [ohm:550110:0]        ib_iface.c:1059 UCX  ERROR ibv_create_cq(cqe=256) failed: Connection timed out
[1739918246.549772] [ohm:550099:0]        ib_iface.c:1059 UCX  ERROR ibv_create_cq(cqe=256) failed: Connection timed out


           ************************************************************
           *        Program running with 64 parallel MPI-processes    *
           *              working on a common directory               *
           ************************************************************
------------------------------------------------------------------------------
                             ORCA STARTUP CALCULATIONS
                           -- RI-GTO INTEGRALS CHOSEN --
------------------------------------------------------------------------------
------------------------------------------------------------------------------
                   ___                                                        
                  /   \      - P O W E R E D   B Y -                         
                 /     \                                                     
                 |  |  |   _    _      __       _____    __    __             
                 |  |  |  | |  | |    /  \     |  _  \  |  |  /  |          
                  \  \/   | |  | |   /    \    | | | |  |  | /  /          
                 / \  \   | |__| |  /  /\  \   | |_| |  |  |/  /          
                |  |  |   |  __  | /  /__\  \  |    /   |      \           
                |  |  |   | |  | | |   __   |  |    \   |  |\   \          
                \     /   | |  | | |  |  |  |  | |\  \  |  | \   \       
                 \___/    |_|  |_| |__|  |__|  |_| \__\ |__|  \__/        
                                                                              
                      - O R C A' S   B I G   F R I E N D -                    
                                      &                                       
                       - I N T E G R A L  F E E D E R -                       
                                                                              
 v1 FN, 2020, v2 2021, v3 2022-2024                                           
------------------------------------------------------------------------------


----------------------
SHARK INTEGRAL PACKAGE
----------------------

Number of atoms                             ...     30
Number of basis functions                   ...    882
Number of shells                            ...    322
Maximum angular momentum                    ...      3
Integral batch strategy                     ... SHARK/LIBINT Hybrid
RI-J (if used) integral strategy            ... SPLIT-RIJ (Revised 2003 algorithm where possible)
Printlevel                                  ...      1
Contraction scheme used                     ... SEGMENTED contraction
Prescreening option                         ... SCHWARTZ
   Thresh                                   ... 2.500e-11
   Tcut                                     ... 2.500e-12
   Tpresel                                  ... 2.500e-12 
Coulomb Range Separation                    ... NOT USED
Exchange Range Separation                   ... Long Range
   Mu parameter                             ... 3.000e-01
   Scaling (regular/separated)              ... 1.500e-01 8.500e-01
Multipole approximations                    ... NOT USED
Finite Nucleus Model                        ... NOT USED
CABS basis                                  ... NOT available
Auxiliary Coulomb fitting basis             ... AVAILABLE
   # of basis functions in Aux-J            ...   1014
   # of shells in Aux-J                     ...    330
   Maximum angular momentum in Aux-J        ...      4
Auxiliary J/K fitting basis                 ... NOT available
Auxiliary Correlation fitting basis         ... NOT available
Auxiliary 'external' fitting basis          ... NOT available

Checking pre-screening integrals            ... done (  0.0 sec) Dimension = 322
Check shell pair data                       ... done (  0.0 sec)
Shell pair information
Shell pair cut-off parameter TPreSel        ...   2.5e-12
Total number of shell pairs                 ...     52003
Shell pairs after pre-screening             ...     44331
Total number of primitive shell pairs       ...    129718
Primitive shell pairs kept                  ...     82102
          la=0 lb=0:   8609 shell pairs
          la=1 lb=0:  11760 shell pairs
          la=1 lb=1:   4076 shell pairs
          la=2 lb=0:   7957 shell pairs
          la=2 lb=1:   5511 shell pairs
          la=2 lb=2:   1895 shell pairs
          la=3 lb=0:   1982 shell pairs
          la=3 lb=1:   1437 shell pairs
          la=3 lb=2:    972 shell pairs
          la=3 lb=3:    132 shell pairs

Calculating one electron integrals          ... done (  0.2 sec)
Calculating RI/J V-Matrix + Cholesky decomp.... done (  0.1 sec)
Calculating Nuclear repulsion               ... done (  0.0 sec) ENN=   1391.922843914774 Eh

Diagonalization of the overlap matrix:
Smallest eigenvalue                        ... 6.538e-07
Time for diagonalization                   ...    0.127 sec
Threshold for overlap eigenvalues          ... 1.000e-07
Number of eigenvalues below threshold      ... 0

IMPORTANT:
Smallest eigenvalue of S below the DiffSThresh (1.000e-06) while
Thresh>1e-12 and/or TCut>1e-13! In order to avoid SCF convergence issues,
Thresh will be set to at least 1e-12 and TCut to at least 1e-13.
This can be turned off by adding %SCF DiffSThresh -1 END to the input.

Time for construction of square roots      ...    0.135 sec
Total time needed                          ...    0.279 sec

-------------------
DFT GRID GENERATION
-------------------

General Integration Accuracy     IntAcc      ... 4.388
Radial Grid Type                 RadialGrid  ... OptM3 with GC (2021)
Angular Grid (max. ang.)         AngularGrid ... 4 (Lebedev-302)
Angular grid pruning method      GridPruning ... 4 (adaptive)
Weight generation scheme         WeightScheme... mBecke (2022)
Basis function cutoff            BFCut       ... 1.0000e-11
Integration weight cutoff        WCut        ... 1.0000e-14
Partially contracted basis set               ... off
Rotationally invariant grid construction     ... off
Angular grids for H and He will be reduced by one unit
Diffuse basis detected: some atoms will have their outermost
                        angular grid increased by 1.

Total number of grid points                  ...   152653
Total number of batches                      ...     2402
Average number of points per batch           ...       63
Average number of grid points per atom       ...     5088

--------------------
COSX GRID GENERATION
--------------------

GRIDX 1
-------
General Integration Accuracy     IntAcc      ... 3.816
Radial Grid Type                 RadialGrid  ... OptM3 with GC (2021)
Angular Grid (max. ang.)         AngularGrid ... 1 (Lebedev-50)
Angular grid pruning method      GridPruning ... 4 (adaptive)
Weight generation scheme         WeightScheme... mBecke (2022)
Basis function cutoff            BFCut       ... 1.0000e-11
Integration weight cutoff        WCut        ... 1.0000e-14
Partially contracted basis set               ... on
Rotationally invariant grid construction     ... off
Angular grids for H and He will be reduced by one unit
Diffuse basis detected: some atoms will have their outermost
                        angular grid increased by 1.

Total number of grid points                  ...    19110
Total number of batches                      ...      165
Average number of points per batch           ...      115
Average number of grid points per atom       ...      637
UseSFitting                                  ... on

GRIDX 2
-------
General Integration Accuracy     IntAcc      ... 4.020
Radial Grid Type                 RadialGrid  ... OptM3 with GC (2021)
Angular Grid (max. ang.)         AngularGrid ... 2 (Lebedev-110)
Angular grid pruning method      GridPruning ... 4 (adaptive)
Weight generation scheme         WeightScheme... mBecke (2022)
Basis function cutoff            BFCut       ... 1.0000e-11
Integration weight cutoff        WCut        ... 1.0000e-14
Partially contracted basis set               ... on
Rotationally invariant grid construction     ... off
Angular grids for H and He will be reduced by one unit
Diffuse basis detected: some atoms will have their outermost
                        angular grid increased by 1.

Total number of grid points                  ...    46183
Total number of batches                      ...      375
Average number of points per batch           ...      123
Average number of grid points per atom       ...     1539
UseSFitting                                  ... on

GRIDX 3
-------
General Integration Accuracy     IntAcc      ... 4.338
Radial Grid Type                 RadialGrid  ... OptM3 with GC (2021)
Angular Grid (max. ang.)         AngularGrid ... 3 (Lebedev-194)
Angular grid pruning method      GridPruning ... 4 (adaptive)
Weight generation scheme         WeightScheme... mBecke (2022)
Basis function cutoff            BFCut       ... 1.0000e-11
Integration weight cutoff        WCut        ... 1.0000e-14
Partially contracted basis set               ... on
Rotationally invariant grid construction     ... off
Angular grids for H and He will be reduced by one unit
Diffuse basis detected: some atoms will have their outermost
                        angular grid increased by 1.

Total number of grid points                  ...   101718
Total number of batches                      ...      810
Average number of points per batch           ...      125
Average number of grid points per atom       ...     3391
UseSFitting                                  ... on
Initializing property integral containers    ... done (  0.0 sec)

SHARK setup successfully completed in   4.1 seconds

Maximum memory used throughout the entire STARTUP-calculation: 79.1 MB
[1739918252.575243] [ohm:550452:0]        ib_iface.c:1059 UCX  ERROR ibv_create_cq(cqe=256) failed: Connection timed out
[1739918252.576341] [ohm:550453:0]        ib_iface.c:1059 UCX  ERROR ibv_create_cq(cqe=256) failed: Connection timed out
[1739918252.580073] [ohm:550454:0]        ib_iface.c:1059 UCX  ERROR ibv_create_cq(cqe=256) failed: Connection timed out
[1739918252.593378] [ohm:550450:0]        ib_iface.c:1059 UCX  ERROR ibv_create_cq(cqe=256) failed: Connection timed out
[1739918252.598169] [ohm:550448:0]        ib_iface.c:1059 UCX  ERROR ibv_create_cq(cqe=256) failed: Connection timed out
[1739918252.607807] [ohm:550464:0]        ib_iface.c:1059 UCX  ERROR ibv_create_cq(cqe=256) failed: Connection timed out
[1739918252.613062] [ohm:550467:0]        ib_iface.c:1059 UCX  ERROR ibv_create_cq(cqe=256) failed: Connection timed out
[1739918252.614103] [ohm:550455:0]        ib_iface.c:1059 UCX  ERROR ibv_create_cq(cqe=256) failed: Connection timed out
[1739918252.671739] [ohm:550525:0]        ib_iface.c:1059 UCX  ERROR ibv_create_cq(cqe=256) failed: Connection timed out
[1739918252.679697] [ohm:550451:0]        ib_iface.c:1059 UCX  ERROR ibv_create_cq(cqe=256) failed: Connection timed out
[1739918252.689355] [ohm:550512:0]        ib_iface.c:1059 UCX  ERROR ibv_create_cq(cqe=256) failed: Connection timed out
[1739918252.698092] [ohm:550558:0]        ib_iface.c:1059 UCX  ERROR ibv_create_cq(cqe=256) failed: Connection timed out
[1739918252.702773] [ohm:550471:0]        ib_iface.c:1059 UCX  ERROR ibv_create_cq(cqe=256) failed: Connection timed out
[1739918252.709299] [ohm:550463:0]        ib_iface.c:1059 UCX  ERROR ibv_create_cq(cqe=256) failed: Connection timed out
[1739918252.711786] [ohm:550469:0]        ib_iface.c:1059 UCX  ERROR ibv_create_cq(cqe=256) failed: Connection timed out
[1739918252.712349] [ohm:550457:0]        ib_iface.c:1059 UCX  ERROR ibv_create_cq(cqe=256) failed: Connection timed out
[1739918252.712859] [ohm:550474:0]        ib_iface.c:1059 UCX  ERROR ibv_create_cq(cqe=256) failed: Connection timed out
[1739918252.717514] [ohm:550483:0]        ib_iface.c:1059 UCX  ERROR ibv_create_cq(cqe=256) failed: Connection timed out
[1739918252.719455] [ohm:550462:0]        ib_iface.c:1059 UCX  ERROR ibv_create_cq(cqe=256) failed: Connection timed out
[1739918252.739258] [ohm:550532:0]        ib_iface.c:1059 UCX  ERROR ibv_create_cq(cqe=256) failed: Connection timed out
[1739918252.745734] [ohm:550529:0]        ib_iface.c:1059 UCX  ERROR ibv_create_cq(cqe=256) failed: Connection timed out
[1739918252.748683] [ohm:550553:0]        ib_iface.c:1059 UCX  ERROR ibv_create_cq(cqe=256) failed: Connection timed out
[1739918252.776819] [ohm:550478:0]        ib_iface.c:1059 UCX  ERROR ibv_create_cq(cqe=256) failed: Connection timed out
[1739918252.781818] [ohm:550456:0]        ib_iface.c:1059 UCX  ERROR ibv_create_cq(cqe=256) failed: Connection timed out
[1739918252.787016] [ohm:550475:0]        ib_iface.c:1059 UCX  ERROR ibv_create_cq(cqe=256) failed: Connection timed out
[1739918252.790829] [ohm:550570:0]        ib_iface.c:1059 UCX  ERROR ibv_create_cq(cqe=256) failed: Connection timed out
[1739918252.796839] [ohm:550468:0]        ib_iface.c:1059 UCX  ERROR ibv_create_cq(cqe=256) failed: Connection timed out
[1739918252.809020] [ohm:550501:0]        ib_iface.c:1059 UCX  ERROR ibv_create_cq(cqe=256) failed: Connection timed out
[1739918252.815840] [ohm:550517:0]        ib_iface.c:1059 UCX  ERROR ibv_create_cq(cqe=256) failed: Connection timed out
[1739918252.816798] [ohm:550470:0]        ib_iface.c:1059 UCX  ERROR ibv_create_cq(cqe=256) failed: Connection timed out
[1739918252.820815] [ohm:550591:0]        ib_iface.c:1059 UCX  ERROR ibv_create_cq(cqe=256) failed: Connection timed out
[1739918252.821416] [ohm:550580:0]        ib_iface.c:1059 UCX  ERROR ibv_create_cq(cqe=256) failed: Connection timed out
[1739918252.829926] [ohm:550458:0]        ib_iface.c:1059 UCX  ERROR ibv_create_cq(cqe=256) failed: Connection timed out
[1739918252.834836] [ohm:550549:0]        ib_iface.c:1059 UCX  ERROR ibv_create_cq(cqe=256) failed: Connection timed out
[1739918252.840120] [ohm:550545:0]        ib_iface.c:1059 UCX  ERROR ibv_create_cq(cqe=256) failed: Connection timed out
[1739918252.840213] [ohm:550480:0]        ib_iface.c:1059 UCX  ERROR ibv_create_cq(cqe=256) failed: Connection timed out
[1739918252.840515] [ohm:550487:0]        ib_iface.c:1059 UCX  ERROR ibv_create_cq(cqe=256) failed: Connection timed out
[1739918252.846294] [ohm:550496:0]        ib_iface.c:1059 UCX  ERROR ibv_create_cq(cqe=256) failed: Connection timed out
[1739918252.857304] [ohm:550563:0]        ib_iface.c:1059 UCX  ERROR ibv_create_cq(cqe=256) failed: Connection timed out
[1739918252.863828] [ohm:550503:0]        ib_iface.c:1059 UCX  ERROR ibv_create_cq(cqe=256) failed: Connection timed out
[1739918252.867165] [ohm:550459:0]        ib_iface.c:1059 UCX  ERROR ibv_create_cq(cqe=256) failed: Connection timed out
[1739918252.872607] [ohm:550465:0]        ib_iface.c:1059 UCX  ERROR ibv_create_cq(cqe=256) failed: Connection timed out
[1739918252.878980] [ohm:550573:0]        ib_iface.c:1059 UCX  ERROR ibv_create_cq(cqe=256) failed: Connection timed out
[1739918252.879162] [ohm:550536:0]        ib_iface.c:1059 UCX  ERROR ibv_create_cq(cqe=256) failed: Connection timed out
[1739918252.885581] [ohm:550476:0]        ib_iface.c:1059 UCX  ERROR ibv_create_cq(cqe=256) failed: Connection timed out
[1739918252.885933] [ohm:550472:0]        ib_iface.c:1059 UCX  ERROR ibv_create_cq(cqe=256) failed: Connection timed out
[1739918252.888433] [ohm:550538:0]        ib_iface.c:1059 UCX  ERROR ibv_create_cq(cqe=256) failed: Connection timed out
[1739918252.890053] [ohm:550461:0]        ib_iface.c:1059 UCX  ERROR ibv_create_cq(cqe=256) failed: Connection timed out
[1739918252.895943] [ohm:550587:0]        ib_iface.c:1059 UCX  ERROR ibv_create_cq(cqe=256) failed: Connection timed out
[1739918252.899686] [ohm:550473:0]        ib_iface.c:1059 UCX  ERROR ibv_create_cq(cqe=256) failed: Connection timed out
[1739918252.899681] [ohm:550491:0]        ib_iface.c:1059 UCX  ERROR ibv_create_cq(cqe=256) failed: Connection timed out
[1739918252.901176] [ohm:550556:0]        ib_iface.c:1059 UCX  ERROR ibv_create_cq(cqe=256) failed: Connection timed out
[1739918252.905676] [ohm:550449:0]        ib_iface.c:1059 UCX  ERROR ibv_create_cq(cqe=256) failed: Connection timed out
[1739918252.906085] [ohm:550498:0]        ib_iface.c:1059 UCX  ERROR ibv_create_cq(cqe=256) failed: Connection timed out
[1739918252.907311] [ohm:550541:0]        ib_iface.c:1059 UCX  ERROR ibv_create_cq(cqe=256) failed: Connection timed out
[1739918252.907878] [ohm:550560:0]        ib_iface.c:1059 UCX  ERROR ibv_create_cq(cqe=256) failed: Connection timed out
[1739918252.909012] [ohm:550466:0]        ib_iface.c:1059 UCX  ERROR ibv_create_cq(cqe=256) failed: Connection timed out
[1739918252.908982] [ohm:550547:0]        ib_iface.c:1059 UCX  ERROR ibv_create_cq(cqe=256) failed: Connection timed out
[1739918252.909128] [ohm:550460:0]        ib_iface.c:1059 UCX  ERROR ibv_create_cq(cqe=256) failed: Connection timed out
[1739918252.910322] [ohm:550565:0]        ib_iface.c:1059 UCX  ERROR ibv_create_cq(cqe=256) failed: Connection timed out
[1739918252.910412] [ohm:550585:0]        ib_iface.c:1059 UCX  ERROR ibv_create_cq(cqe=256) failed: Connection timed out
[1739918252.910703] [ohm:550447:0]        ib_iface.c:1059 UCX  ERROR ibv_create_cq(cqe=256) failed: Connection timed out
[1739918252.911125] [ohm:550581:0]        ib_iface.c:1059 UCX  ERROR ibv_create_cq(cqe=256) failed: Connection timed out
[1739918252.912735] [ohm:550509:0]        ib_iface.c:1059 UCX  ERROR ibv_create_cq(cqe=256) failed: Connection timed out


           ************************************************************
           *        Program running with 64 parallel MPI-processes    *
           *              working on a common directory               *
           ************************************************************
-------------------------------------------------------------------------------
                                 ORCA GUESS
                   Start orbitals & Density for SCF / CASSCF
-------------------------------------------------------------------------------

------------
SCF SETTINGS
------------
Hamiltonian:
 Density Functional     Method          .... DFT(GTOs)
  Functional kind                       .... Exchange-Correlation
  Functional name                       .... wB97M-V exchange-correlation functional
  Functional family                     .... Hybrid MGGA
  Functional refs                              
    [ 0] N. Mardirossian and M. Head-Gordon.,  J. Chem. Phys. 144, 214110 (2016), doi: 10.1063/1.4952647
  Fraction of HF Exchange (short range) .... 0.1500
  Fraction of HF Exchange (long range)  .... 1.0000
  Range separation parameter mu         .... 0.3000
  Functional external parameters        .... 17
    Parameter  0 _cx00      =  8.500000e-01 : u^00 coefficient for exchange
    Parameter  1 _cx01      =  1.007000e+00 : u^01 coefficient for exchange
    Parameter  2 _cx10      =  2.590000e-01 : u^10 coefficient for exchange
    Parameter  3 _css00     =  4.430000e-01 : u^00 coefficient for same-spin correlation
    Parameter  4 _css04     = -1.437000e+00 : u^04 coefficient for same-spin correlation
    Parameter  5 _css10     = -4.535000e+00 : u^10 coefficient for same-spin correlation
    Parameter  6 _css20     = -3.390000e+00 : u^20 coefficient for same-spin correlation
    Parameter  7 _css43     =  4.278000e+00 : u^43 coefficient for same-spin correlation
    Parameter  8 _cos00     =  1.000000e+00 : u^00 coefficient for opposite-spin correlation
    Parameter  9 _cos10     =  1.358000e+00 : u^10 coefficient for opposite-spin correlation
    Parameter 10 _cos20     =  2.924000e+00 : u^20 coefficient for opposite-spin correlation
    Parameter 11 _cos21     = -8.812000e+00 : u^21 coefficient for opposite-spin correlation
    Parameter 12 _cos60     = -1.390000e+00 : u^60 coefficient for opposite-spin correlation
    Parameter 13 _cos61     =  9.142000e+00 : u^61 coefficient for opposite-spin correlation
    Parameter 14 _alpha     =  1.000000e+00 : fraction of HF exchange
    Parameter 15 _beta      = -8.500000e-01 : fraction of short-range exchange
    Parameter 16 _omega     =  3.000000e-01 : range-separation constant
 Long-range corrected/Screened/Range-Separated Hybrid DFT is turned on
   Amount of maximum screened exact exchange              ....  0.850000
   Range separation parameter mu (erf(mu*r12)/r12)        ....  0.300000
 RI-approximation to the Coulomb term is turned on
   Number of AuxJ basis functions       .... 1014
   RIJ-COSX (HFX calculated with COS-X)).... on


General Settings:
 Integral files         IntName         .... orca
 Hartree-Fock type      HFTyp           .... UHF
 Total Charge           Charge          ....    0
 Multiplicity           Mult            ....    3
 Number of Electrons    NEL             ....  132
 Basis Dimension        Dim             ....  882
 Nuclear Repulsion      ENuc            ....   1391.9228439148 Eh

Convergence Acceleration:
 AO-DIIS                CNVDIIS         .... on
   Start iteration      DIISMaxIt       ....    12
   Startup error        DIISStart       ....  0.200000
   # of expansion vecs  DIISMaxEq       ....     5
   Bias factor          DIISBfac        ....   1.050
   Max. coefficient     DIISMaxC        ....  10.000
 MO-DIIS                CNVKDIIS        .... off
 Trust-Rad. Augm. Hess. CNVTRAH         .... auto
   Auto Start mean grad. ratio tolernc. ....  1.125000
   Auto Start start iteration           ....    50
   Auto Start num. interpolation iter.  ....    10
   Max. Number of Micro iterations      ....    24
   Max. Number of Macro iterations      .... Maxiter - #DIIS iter
   Number of Davidson start vectors     ....     2
   Converg. threshold    (grad. norm)   ....   1.000e-05
   Grad. Scal. Fac. for Micro threshold ....   0.100
   Minimum threshold for Micro iter.    ....   1.000e-02
   NR start threshold (gradient norm)   ....   1.000e-04
   Initial trust radius                 ....   0.400
   Minimum AH scaling param. (alpha)    ....   1.000
   Maximum AH scaling param. (alpha)    .... 1000.000
   Quad. conv. algorithm                .... NR
   White noise on init. David. guess    .... on
   Maximum white noise                  ....   0.010
   Pseudo random numbers                .... off
   Inactive MOs                         .... canonical
   Orbital update algorithm             .... Taylor
   Preconditioner                       .... Diag
   Full preconditioner red. dimension   ....   250
 SOSCF                  CNVSOSCF        .... on
   Start iteration      SOSCFMaxIt      ....   150
   Startup grad/error   SOSCFStart      ....  0.003300
   Hessian update       SOSCFHessUp     .... L-BFGS
 Level Shifting         CNVShift        .... on
   Level shift para.    LevelShift      ....    0.2500
   Turn off err/grad.   ShiftErr        ....    0.0010
 Zerner damping         CNVZerner       .... off
 Static damping         CNVDamp         .... on
   Fraction old density DampFac         ....    0.7000
   Max. Damping (<1)    DampMax         ....    0.9800
   Min. Damping (>=0)   DampMin         ....    0.0000
   Turn off err/grad.   DampErr         ....    0.1000

SCF Procedure:
 Maximum # iterations   MaxIter         ....   125
 SCF integral mode      SCFMode         .... Direct
   Integral package                     .... SHARK and LIBINT hybrid scheme
 Reset frequency        DirectResetFreq ....    20
 Integral Threshold     Thresh          ....  1.000e-12 Eh
 Primitive CutOff       TCut            ....  1.000e-13 Eh

Convergence Tolerance:
 Convergence Check Mode ConvCheckMode   .... Total+1el-Energy
 Convergence forced     ConvForced      .... 1
 Energy Change          TolE            ....  1.000e-08 Eh
 1-El. energy change                    ....  1.000e-05 Eh
 Orbital Gradient       TolG            ....  1.000e-05
 Orbital Rotation angle TolX            ....  1.000e-05
 DIIS Error             TolErr          ....  5.000e-07

------------------------------
INITIAL GUESS: MODEL POTENTIAL
------------------------------
Loading Hartree-Fock densities                     ... done
Calculating cut-offs                               ... done
Initializing the effective Hamiltonian             ... done
Setting up the integral package (SHARK)            ... done
Starting the Coulomb interaction                   ... done (   0.1 sec)
Making the grid                                    ... done (   0.2 sec)
Mapping shells                                     ... done
Starting the XC term evaluation                    ... done (   0.1 sec)
  promolecular density results
     # of electrons  =    131.994504114
     EX              =   -113.483989416
     EC              =     -4.455403953
     EX+EC           =   -117.939393369
Transforming the Hamiltonian                       ... done (   0.1 sec)
Diagonalizing the Hamiltonian                      ... done (   0.1 sec)
Back transforming the eigenvectors                 ... done (   0.1 sec)
Now organizing SCF variables                       ... done
                      ------------------
                      INITIAL GUESS DONE (   1.1 sec)
                      ------------------
             **** ENERGY FILE WAS UPDATED (orca.en.tmp) ****
Finished Guess after   3.6 sec
Maximum memory used throughout the entire GUESS-calculation: 71.5 MB
[1739918256.749861] [ohm:550810:0]        ib_iface.c:1059 UCX  ERROR ibv_create_cq(cqe=256) failed: Connection timed out
[1739918256.753406] [ohm:550812:0]        ib_iface.c:1059 UCX  ERROR ibv_create_cq(cqe=256) failed: Connection timed out
[1739918256.753813] [ohm:550815:0]        ib_iface.c:1059 UCX  ERROR ibv_create_cq(cqe=256) failed: Connection timed out
[1739918256.824596] [ohm:550846:0]        ib_iface.c:1059 UCX  ERROR ibv_create_cq(cqe=256) failed: Connection timed out
[1739918256.827508] [ohm:550822:0]        ib_iface.c:1059 UCX  ERROR ibv_create_cq(cqe=256) failed: Connection timed out
[1739918256.832186] [ohm:550884:0]        ib_iface.c:1059 UCX  ERROR ibv_create_cq(cqe=256) failed: Connection timed out
[1739918256.832461] [ohm:550813:0]        ib_iface.c:1059 UCX  ERROR ibv_create_cq(cqe=256) failed: Connection timed out
[1739918256.834208] [ohm:550819:0]        ib_iface.c:1059 UCX  ERROR ibv_create_cq(cqe=256) failed: Connection timed out
[1739918256.837803] [ohm:550814:0]        ib_iface.c:1059 UCX  ERROR ibv_create_cq(cqe=256) failed: Connection timed out
[1739918256.837968] [ohm:550898:0]        ib_iface.c:1059 UCX  ERROR ibv_create_cq(cqe=256) failed: Connection timed out
[1739918256.839017] [ohm:550811:0]        ib_iface.c:1059 UCX  ERROR ibv_create_cq(cqe=256) failed: Connection timed out
[1739918256.843326] [ohm:550841:0]        ib_iface.c:1059 UCX  ERROR ibv_create_cq(cqe=256) failed: Connection timed out
[1739918256.843881] [ohm:550905:0]        ib_iface.c:1059 UCX  ERROR ibv_create_cq(cqe=256) failed: Connection timed out
[1739918256.854021] [ohm:550889:0]        ib_iface.c:1059 UCX  ERROR ibv_create_cq(cqe=256) failed: Connection timed out
[1739918256.857793] [ohm:550839:0]        ib_iface.c:1059 UCX  ERROR ibv_create_cq(cqe=256) failed: Connection timed out
[1739918256.874528] [ohm:550964:0]        ib_iface.c:1059 UCX  ERROR ibv_create_cq(cqe=256) failed: Connection timed out
[1739918256.900999] [ohm:550942:0]        ib_iface.c:1059 UCX  ERROR ibv_create_cq(cqe=256) failed: Connection timed out
[1739918256.919596] [ohm:550959:0]        ib_iface.c:1059 UCX  ERROR ibv_create_cq(cqe=256) failed: Connection timed out
[1739918256.922835] [ohm:550915:0]        ib_iface.c:1059 UCX  ERROR ibv_create_cq(cqe=256) failed: Connection timed out
[1739918256.930951] [ohm:550869:0]        ib_iface.c:1059 UCX  ERROR ibv_create_cq(cqe=256) failed: Connection timed out
[1739918256.935926] [ohm:550850:0]        ib_iface.c:1059 UCX  ERROR ibv_create_cq(cqe=256) failed: Connection timed out
[1739918256.936386] [ohm:550946:0]        ib_iface.c:1059 UCX  ERROR ibv_create_cq(cqe=256) failed: Connection timed out
[1739918256.940375] [ohm:550881:0]        ib_iface.c:1059 UCX  ERROR ibv_create_cq(cqe=256) failed: Connection timed out
[1739918256.953229] [ohm:550931:0]        ib_iface.c:1059 UCX  ERROR ibv_create_cq(cqe=256) failed: Connection timed out
[1739918256.954135] [ohm:550918:0]        ib_iface.c:1059 UCX  ERROR ibv_create_cq(cqe=256) failed: Connection timed out
[1739918256.981784] [ohm:550894:0]        ib_iface.c:1059 UCX  ERROR ibv_create_cq(cqe=256) failed: Connection timed out
[1739918256.984303] [ohm:550885:0]        ib_iface.c:1059 UCX  ERROR ibv_create_cq(cqe=256) failed: Connection timed out
[1739918256.988176] [ohm:550824:0]        ib_iface.c:1059 UCX  ERROR ibv_create_cq(cqe=256) failed: Connection timed out
[1739918256.991691] [ohm:550951:0]        ib_iface.c:1059 UCX  ERROR ibv_create_cq(cqe=256) failed: Connection timed out
[1739918256.999061] [ohm:550855:0]        ib_iface.c:1059 UCX  ERROR ibv_create_cq(cqe=256) failed: Connection timed out
[1739918257.013276] [ohm:550910:0]        ib_iface.c:1059 UCX  ERROR ibv_create_cq(cqe=256) failed: Connection timed out
[1739918257.015636] [ohm:550826:0]        ib_iface.c:1059 UCX  ERROR ibv_create_cq(cqe=256) failed: Connection timed out
[1739918257.019690] [ohm:550823:0]        ib_iface.c:1059 UCX  ERROR ibv_create_cq(cqe=256) failed: Connection timed out
[1739918257.029031] [ohm:550837:0]        ib_iface.c:1059 UCX  ERROR ibv_create_cq(cqe=256) failed: Connection timed out
[1739918257.033396] [ohm:550825:0]        ib_iface.c:1059 UCX  ERROR ibv_create_cq(cqe=256) failed: Connection timed out
[1739918257.049934] [ohm:550900:0]        ib_iface.c:1059 UCX  ERROR ibv_create_cq(cqe=256) failed: Connection timed out
[1739918257.055301] [ohm:550820:0]        ib_iface.c:1059 UCX  ERROR ibv_create_cq(cqe=256) failed: Connection timed out
[1739918257.056569] [ohm:550818:0]        ib_iface.c:1059 UCX  ERROR ibv_create_cq(cqe=256) failed: Connection timed out
[1739918257.061352] [ohm:550937:0]        ib_iface.c:1059 UCX  ERROR ibv_create_cq(cqe=256) failed: Connection timed out
[1739918257.063388] [ohm:550945:0]        ib_iface.c:1059 UCX  ERROR ibv_create_cq(cqe=256) failed: Connection timed out
[1739918257.068135] [ohm:550847:0]        ib_iface.c:1059 UCX  ERROR ibv_create_cq(cqe=256) failed: Connection timed out
[1739918257.072078] [ohm:550816:0]        ib_iface.c:1059 UCX  ERROR ibv_create_cq(cqe=256) failed: Connection timed out
[1739918257.073408] [ohm:550821:0]        ib_iface.c:1059 UCX  ERROR ibv_create_cq(cqe=256) failed: Connection timed out
[1739918257.074473] [ohm:550892:0]        ib_iface.c:1059 UCX  ERROR ibv_create_cq(cqe=256) failed: Connection timed out
[1739918257.074860] [ohm:550924:0]        ib_iface.c:1059 UCX  ERROR ibv_create_cq(cqe=256) failed: Connection timed out
[1739918257.077405] [ohm:550955:0]        ib_iface.c:1059 UCX  ERROR ibv_create_cq(cqe=256) failed: Connection timed out
[1739918257.083171] [ohm:550923:0]        ib_iface.c:1059 UCX  ERROR ibv_create_cq(cqe=256) failed: Connection timed out
[1739918257.089609] [ohm:550878:0]        ib_iface.c:1059 UCX  ERROR ibv_create_cq(cqe=256) failed: Connection timed out
[1739918257.096579] [ohm:550883:0]        ib_iface.c:1059 UCX  ERROR ibv_create_cq(cqe=256) failed: Connection timed out
[1739918257.099026] [ohm:550877:0]        ib_iface.c:1059 UCX  ERROR ibv_create_cq(cqe=256) failed: Connection timed out
[1739918257.102851] [ohm:550879:0]        ib_iface.c:1059 UCX  ERROR ibv_create_cq(cqe=256) failed: Connection timed out
[1739918257.104356] [ohm:550852:0]        ib_iface.c:1059 UCX  ERROR ibv_create_cq(cqe=256) failed: Connection timed out
[1739918257.105311] [ohm:550875:0]        ib_iface.c:1059 UCX  ERROR ibv_create_cq(cqe=256) failed: Connection timed out
[1739918257.111684] [ohm:550888:0]        ib_iface.c:1059 UCX  ERROR ibv_create_cq(cqe=256) failed: Connection timed out
[1739918257.114343] [ohm:550844:0]        ib_iface.c:1059 UCX  ERROR ibv_create_cq(cqe=256) failed: Connection timed out
[1739918257.115451] [ohm:550865:0]        ib_iface.c:1059 UCX  ERROR ibv_create_cq(cqe=256) failed: Connection timed out
[1739918257.116081] [ohm:550882:0]        ib_iface.c:1059 UCX  ERROR ibv_create_cq(cqe=256) failed: Connection timed out
[1739918257.117676] [ohm:550858:0]        ib_iface.c:1059 UCX  ERROR ibv_create_cq(cqe=256) failed: Connection timed out
[1739918257.117674] [ohm:550872:0]        ib_iface.c:1059 UCX  ERROR ibv_create_cq(cqe=256) failed: Connection timed out
[1739918257.117940] [ohm:550880:0]        ib_iface.c:1059 UCX  ERROR ibv_create_cq(cqe=256) failed: Connection timed out
[1739918257.118689] [ohm:550913:0]        ib_iface.c:1059 UCX  ERROR ibv_create_cq(cqe=256) failed: Connection timed out
[1739918257.120178] [ohm:550861:0]        ib_iface.c:1059 UCX  ERROR ibv_create_cq(cqe=256) failed: Connection timed out
[1739918257.120833] [ohm:550817:0]        ib_iface.c:1059 UCX  ERROR ibv_create_cq(cqe=256) failed: Connection timed out
[1739918257.121285] [ohm:550833:0]        ib_iface.c:1059 UCX  ERROR ibv_create_cq(cqe=256) failed: Connection timed out


           ************************************************************
           *        Program running with 64 parallel MPI-processes    *
           *              working on a common directory               *
           ************************************************************

-------------------------------------------------------------------------------------------
                                      ORCA LEAN-SCF
                              memory conserving SCF solver
-------------------------------------------------------------------------------------------

----------------------------------------D-I-I-S--------------------------------------------
Iteration    Energy (Eh)           Delta-E    RMSDP     MaxDP     DIISErr   Damp  Time(sec)
-------------------------------------------------------------------------------------------
               ***  Starting incremental Fock matrix formation  ***
    1    -907.9760579839044112     0.00e+00  1.62e-03  4.34e-01  1.54e-01  0.700   7.5
Warning: op=0 Small HOMO/LUMO gap (   0.037) - skipping pre-diagonalization
         Will do a full diagonalization
    2    -908.2768290060166692    -3.01e-01  1.88e-03  5.16e-01  7.25e-02  0.700   6.5
                               ***Turning on AO-DIIS***
    3    -908.4131235276968255    -1.36e-01  1.19e-03  2.72e-01  2.92e-02  0.700   5.8
    4    -908.4959115701672090    -8.28e-02  2.41e-03  6.23e-01  1.72e-02  0.000   5.7
    5    -908.6881596196208193    -1.92e-01  5.72e-04  2.03e-01  7.21e-03  0.000   5.9
    6    -908.6937411963417617    -5.58e-03  4.67e-04  1.41e-01  6.95e-03  0.000   5.7
    7    -908.6988623101356097    -5.12e-03  6.78e-04  1.60e-01  6.74e-03  0.000   5.6
    8    -908.7050964555360224    -6.23e-03  4.17e-04  1.04e-01  6.36e-03  0.000   5.7
    9    -908.7089991953134813    -3.90e-03  7.21e-04  1.56e-01  4.89e-03  0.000   5.6
   10    -908.7129390003010485    -3.94e-03  1.80e-04  4.12e-02  3.97e-03  0.000   5.6
                              *** Initializing SOSCF ***
---------------------------------------S-O-S-C-F--------------------------------------
Iteration    Energy (Eh)           Delta-E    RMSDP     MaxDP     MaxGrad    Time(sec)
--------------------------------------------------------------------------------------
   11    -908.7143339039762395    -1.39e-03  2.61e-04  4.90e-02  2.56e-03     6.4
               *** Restarting incremental Fock matrix formation ***
   12    -908.7152268476143036    -8.93e-04  1.94e-04  3.01e-02  7.07e-03     7.1
   13    -908.7155638725116660    -3.37e-04  1.50e-04  1.66e-02  3.15e-03     6.5
   14    -908.7157642754209519    -2.00e-04  9.93e-05  1.72e-02  6.53e-04     6.4
   15    -908.7157817525940118    -1.75e-05  4.82e-05  8.54e-03  5.11e-04     6.3
   16    -908.7157975690502099    -1.58e-05  1.18e-05  1.67e-03  3.31e-04     6.2
   17    -908.7158003659533279    -2.80e-06  1.21e-05  2.60e-03  2.78e-04     6.1
   18    -908.7158026212869117    -2.26e-06  9.60e-06  1.65e-03  1.50e-04     6.1
   19    -908.7158035123970876    -8.91e-07  4.63e-06  7.14e-04  3.79e-05     6.0
   20    -908.7158037103940842    -1.98e-07  2.71e-06  5.10e-04  3.55e-05     5.8
   21    -908.7158037752919881    -6.49e-08  1.32e-06  1.98e-04  1.88e-05     5.7
   22    -908.7158038309776202    -5.57e-08  7.04e-07  1.48e-04  1.51e-05     5.6
   23    -908.7158037977160348     3.33e-08  9.61e-07  2.05e-04  7.14e-06     5.4
   24    -908.7158037936756045     4.04e-09  1.45e-06  5.09e-04  5.54e-06     5.3
                 **** Energy Check signals convergence ****

               *****************************************************
               *                     SUCCESS                       *
               *           SCF CONVERGED AFTER  24 CYCLES          *
               *****************************************************

Recomputing exchange energy using gridx3       ... done (    7.596 sec)
Old exchange energy                            :    -35.000683567 Eh
New exchange energy                            :    -35.000671662 Eh
Exchange energy change after final integration :      0.000011905 Eh
Total energy after final integration           :   -908.715791888 Eh
             **** ENERGY FILE WAS UPDATED (orca.en.tmp) ****

----------------
TOTAL SCF ENERGY
----------------

Total Energy       :       -908.71579188831788 Eh          -24727.41381 eV

Components:
Nuclear Repulsion  :       1391.92284391477415 Eh           37876.14617 eV
Electronic Energy  :      -2300.63864770844975 Eh          -62603.56031 eV
One Electron Energy:      -4001.35546083999088 Eh         -108882.41756 eV
Two Electron Energy:       1700.71681313154136 Eh           46278.85726 eV

Virial components:
Potential Energy   :      -1814.23553073569633 Eh          -49367.85860 eV
Kinetic Energy     :        905.51973884737845 Eh           24640.44479 eV
Virial Ratio       :          2.00352952332658

DFT components:
N(Alpha)           :       67.000188803596 electrons
N(Beta)            :       65.000145408033 electrons
N(Total)           :      132.000334211629 electrons
E(XC)              :      -86.172638569122 Eh       

---------------
SCF CONVERGENCE
---------------

  Last Energy change         ...   -4.0404e-09  Tolerance :   1.0000e-08
  Last MAX-Density change    ...    5.0868e-04  Tolerance :   1.0000e-07
  Last RMS-Density change    ...    1.4509e-06  Tolerance :   5.0000e-09
  Last DIIS Error            ...    2.5620e-03  Tolerance :   5.0000e-07
  Last Orbital Gradient      ...    5.5386e-06  Tolerance :   1.0000e-05
  Last Orbital Rotation      ...    4.1977e-05  Tolerance :   1.0000e-05


----------------------
UHF SPIN CONTAMINATION
----------------------

Warning: in a DFT calculation there is little theoretical justification to 
         calculate <S**2> as in Hartree-Fock theory. We will do it anyways
         but you should keep in mind that the values have only limited relevance

Expectation value of <S**2>     :     2.011764
Ideal value S*(S+1) for S=1.0   :     2.000000
Deviation                       :     0.011764

----------------
ORBITAL ENERGIES
----------------
                 SPIN UP ORBITALS
  NO   OCC          E(Eh)            E(eV) 
   0   1.0000     -19.336626      -526.1763 
   1   1.0000     -19.327105      -525.9173 
   2   1.0000     -19.326894      -525.9115 
   3   1.0000     -19.325037      -525.8610 
   4   1.0000     -14.596453      -397.1897 
   5   1.0000     -14.588014      -396.9600 
   6   1.0000     -14.569582      -396.4585 
   7   1.0000     -14.556719      -396.1085 
   8   1.0000     -10.521742      -286.3112 
   9   1.0000     -10.514197      -286.1059 
  10   1.0000     -10.486570      -285.3541 
  11   1.0000     -10.466974      -284.8209 
  12   1.0000     -10.450965      -284.3852 
  13   1.0000     -10.412348      -283.3344 
  14   1.0000     -10.399484      -282.9844 
  15   1.0000     -10.390117      -282.7295 
  16   1.0000     -10.363516      -282.0056 
  17   1.0000     -10.355659      -281.7918 
  18   1.0000      -1.224030       -33.3076 
  19   1.0000      -1.215540       -33.0765 
  20   1.0000      -1.192157       -32.4402 
  21   1.0000      -1.179419       -32.0936 
  22   1.0000      -1.121473       -30.5168 
  23   1.0000      -1.118099       -30.4250 
  24   1.0000      -1.071314       -29.1519 
  25   1.0000      -1.065789       -29.0016 
  26   1.0000      -0.974895       -26.5282 
  27   1.0000      -0.930670       -25.3248 
  28   1.0000      -0.855747       -23.2861 
  29   1.0000      -0.837474       -22.7888 
  30   1.0000      -0.822351       -22.3773 
  31   1.0000      -0.805995       -21.9322 
  32   1.0000      -0.785951       -21.3868 
  33   1.0000      -0.780734       -21.2448 
  34   1.0000      -0.698790       -19.0151 
  35   1.0000      -0.693758       -18.8781 
  36   1.0000      -0.690278       -18.7834 
  37   1.0000      -0.680141       -18.5076 
  38   1.0000      -0.656423       -17.8622 
  39   1.0000      -0.650955       -17.7134 
  40   1.0000      -0.624246       -16.9866 
  41   1.0000      -0.601265       -16.3612 
  42   1.0000      -0.599225       -16.3057 
  43   1.0000      -0.595082       -16.1930 
  44   1.0000      -0.575427       -15.6582 
  45   1.0000      -0.567833       -15.4515 
  46   1.0000      -0.563172       -15.3247 
  47   1.0000      -0.552470       -15.0335 
  48   1.0000      -0.551440       -15.0054 
  49   1.0000      -0.540233       -14.7005 
  50   1.0000      -0.536158       -14.5896 
  51   1.0000      -0.526396       -14.3240 
  52   1.0000      -0.512444       -13.9443 
  53   1.0000      -0.506946       -13.7947 
  54   1.0000      -0.502086       -13.6624 
  55   1.0000      -0.492103       -13.3908 
  56   1.0000      -0.486192       -13.2299 
  57   1.0000      -0.480702       -13.0806 
  58   1.0000      -0.425383       -11.5753 
  59   1.0000      -0.414598       -11.2818 
  60   1.0000      -0.406530       -11.0622 
  61   1.0000      -0.402866       -10.9625 
  62   1.0000      -0.389851       -10.6084 
  63   1.0000      -0.387971       -10.5572 
  64   1.0000      -0.379903       -10.3377 
  65   1.0000      -0.328954        -8.9513 
  66   1.0000      -0.233847        -6.3633 
  67   0.0000       0.006585         0.1792 
  68   0.0000       0.010205         0.2777 
  69   0.0000       0.022565         0.6140 
  70   0.0000       0.037089         1.0092 
  71   0.0000       0.042053         1.1443 
  72   0.0000       0.054300         1.4776 
  73   0.0000       0.055429         1.5083 
  74   0.0000       0.059614         1.6222 
  75   0.0000       0.064125         1.7449 
  76   0.0000       0.068307         1.8587 
  77   0.0000       0.069739         1.8977 

                 SPIN DOWN ORBITALS
  NO   OCC          E(Eh)            E(eV) 
   0   1.0000     -19.336566      -526.1747 
   1   1.0000     -19.327184      -525.9194 
   2   1.0000     -19.325150      -525.8641 
   3   1.0000     -19.318617      -525.6863 
   4   1.0000     -14.591871      -397.0650 
   5   1.0000     -14.587854      -396.9557 
   6   1.0000     -14.569474      -396.4555 
   7   1.0000     -14.555924      -396.0868 
   8   1.0000     -10.521747      -286.3113 
   9   1.0000     -10.514491      -286.1139 
  10   1.0000     -10.486551      -285.3536 
  11   1.0000     -10.467184      -284.8265 
  12   1.0000     -10.450689      -284.3777 
  13   1.0000     -10.402488      -283.0661 
  14   1.0000     -10.390128      -282.7297 
  15   1.0000     -10.388680      -282.6904 
  16   1.0000     -10.363944      -282.0173 
  17   1.0000     -10.355644      -281.7914 
  18   1.0000      -1.223881       -33.3035 
  19   1.0000      -1.211389       -32.9636 
  20   1.0000      -1.192229       -32.4422 
  21   1.0000      -1.170391       -31.8479 
  22   1.0000      -1.121103       -30.5068 
  23   1.0000      -1.107689       -30.1418 
  24   1.0000      -1.071040       -29.1445 
  25   1.0000      -1.060790       -28.8656 
  26   1.0000      -0.953717       -25.9520 
  27   1.0000      -0.930297       -25.3147 
  28   1.0000      -0.842064       -22.9137 
  29   1.0000      -0.837125       -22.7793 
  30   1.0000      -0.811001       -22.0685 
  31   1.0000      -0.805879       -21.9291 
  32   1.0000      -0.780579       -21.2406 
  33   1.0000      -0.779220       -21.2037 
  34   1.0000      -0.691298       -18.8112 
  35   1.0000      -0.690150       -18.7799 
  36   1.0000      -0.682608       -18.5747 
  37   1.0000      -0.679877       -18.5004 
  38   1.0000      -0.650990       -17.7143 
  39   1.0000      -0.647759       -17.6264 
  40   1.0000      -0.612954       -16.6793 
  41   1.0000      -0.595505       -16.2045 
  42   1.0000      -0.591157       -16.0862 
  43   1.0000      -0.588203       -16.0058 
  44   1.0000      -0.567734       -15.4488 
  45   1.0000      -0.561696       -15.2845 
  46   1.0000      -0.556135       -15.1332 
  47   1.0000      -0.551379       -15.0038 
  48   1.0000      -0.546071       -14.8594 
  49   1.0000      -0.535857       -14.5814 
  50   1.0000      -0.529027       -14.3956 
  51   1.0000      -0.513382       -13.9698 
  52   1.0000      -0.509115       -13.8537 
  53   1.0000      -0.501373       -13.6430 
  54   1.0000      -0.492343       -13.3973 
  55   1.0000      -0.486309       -13.2332 
  56   1.0000      -0.480411       -13.0727 
  57   1.0000      -0.450164       -12.2496 
  58   1.0000      -0.425138       -11.5686 
  59   1.0000      -0.409769       -11.1504 
  60   1.0000      -0.403828       -10.9887 
  61   1.0000      -0.389911       -10.6100 
  62   1.0000      -0.380383       -10.3507 
  63   1.0000      -0.377833       -10.2814 
  64   1.0000      -0.329602        -8.9689 
  65   0.0000      -0.097236        -2.6459 
  66   0.0000       0.007814         0.2126 
  67   0.0000       0.009860         0.2683 
  68   0.0000       0.020710         0.5636 
  69   0.0000       0.033769         0.9189 
  70   0.0000       0.040876         1.1123 
  71   0.0000       0.049265         1.3406 
  72   0.0000       0.054361         1.4792 
  73   0.0000       0.056108         1.5268 
  74   0.0000       0.062917         1.7120 
  75   0.0000       0.064108         1.7445 
*Only the first 10 virtual orbitals were printed.

                    ********************************
                    * MULLIKEN POPULATION ANALYSIS *
                    ********************************

--------------------------------------------
MULLIKEN ATOMIC CHARGES AND SPIN POPULATIONS
--------------------------------------------
   0 O :   -0.694644    0.236689
   1 O :   -0.630988   -0.004007
   2 O :   -0.651493    0.064330
   3 O :   -0.633950    0.004038
   4 N :    0.003110    0.198946
   5 N :   -0.048938    0.014003
   6 N :    0.013839    0.034635
   7 N :    0.002613    0.003975
   8 C :    1.109387    0.382073
   9 C :    0.392543    0.015571
  10 C :   -0.754495    0.849970
  11 C :    0.055135    0.004410
  12 C :   -1.528015    0.032543
  13 C :   -1.218342   -0.010104
  14 C :    0.673165    0.200102
  15 C :    0.627945    0.018490
  16 C :    0.392052   -0.024507
  17 C :    0.434457   -0.015172
  18 H :    0.273726   -0.034472
  19 H :    0.208561   -0.000314
  20 H :    0.324819    0.004951
  21 H :    0.321051    0.002044
  22 H :    0.416176    0.027078
  23 H :    0.245559    0.000379
  24 H :    0.391442   -0.000952
  25 H :    0.125118    0.004145
  26 H :    0.100708   -0.012168
  27 H :    0.055049    0.001413
  28 H :   -0.038846    0.000576
  29 H :    0.033257    0.001336
Sum of atomic charges         :    0.0000000
Sum of atomic spin populations:    2.0000000

-----------------------------------------------------
[...]
[1739918566.161301] [ohm:553882:0]        ib_iface.c:1059 UCX  ERROR ibv_create_cq(cqe=256) failed: Connection timed out
[1739918566.166483] [ohm:553778:0]        ib_iface.c:1059 UCX  ERROR ibv_create_cq(cqe=256) failed: Connection timed out
[1739918566.166705] [ohm:553808:0]        ib_iface.c:1059 UCX  ERROR ibv_create_cq(cqe=256) failed: Connection timed out
[1739918566.166777] [ohm:553874:0]        ib_iface.c:1059 UCX  ERROR ibv_create_cq(cqe=256) failed: Connection timed out
[1739918566.166975] [ohm:553844:0]        ib_iface.c:1059 UCX  ERROR ibv_create_cq(cqe=256) failed: Connection timed out
[1739918566.173261] [ohm:553896:0]        ib_iface.c:1059 UCX  ERROR ibv_create_cq(cqe=256) failed: Connection timed out
[1739918566.174358] [ohm:553818:0]        ib_iface.c:1059 UCX  ERROR ibv_create_cq(cqe=256) failed: Connection timed out
[1739918566.175063] [ohm:553822:0]        ib_iface.c:1059 UCX  ERROR ibv_create_cq(cqe=256) failed: Connection timed out
[1739918566.176414] [ohm:553804:0]        ib_iface.c:1059 UCX  ERROR ibv_create_cq(cqe=256) failed: Connection timed out
[1739918566.176768] [ohm:553813:0]        ib_iface.c:1059 UCX  ERROR ibv_create_cq(cqe=256) failed: Connection timed out
[1739918566.176816] [ohm:553869:0]        ib_iface.c:1059 UCX  ERROR ibv_create_cq(cqe=256) failed: Connection timed out


           ************************************************************
           *        Program running with 64 parallel MPI-processes    *
           *              working on a common directory               *
           ************************************************************

------------------------------------------------------------------------------
                              ORCA PROPERTY CALCULATIONS
------------------------------------------------------------------------------

GBWName                                 ... orca.gbw
Number of atoms                         ...     30
Number of basis functions               ...    882
Max core memory                         ...   1024 MB

Electric properties:
Dipole moment                           ... YES
Quadrupole moment                       ...  NO
Static polarizability (Dipole/Dipole)   ...  NO
Static polarizability (Dipole/Quad.)    ...  NO
Static polarizability (Quad./Quad.)     ...  NO
Static polarizability (Velocity)        ...  NO

Atomic electric properties:
Dipole moment                           ...  NO
Quadrupole moment                       ...  NO
Static polarizability                   ...  NO

Choice of electric origin               ... Center of mass
Position of electric origin             ...     0.070901     0.008343     0.141030

General magnetic properties:
Magnetizability                         ...  NO

EPR properties:
g-Tensor (aka g-matrix)                 ...  NO
Zero-Field splitting spin-orbit         ...  NO
Zero-field splitting spin-spin          ...  NO
Hyperfine couplings                     ...  NO (   0 nuclei)
Quadrupole couplings                    ...  NO (   0 nuclei)
Contact density                         ...  NO (   0 nuclei)

NMR properties:
Chemical shifts                         ...  NO (   0 nuclei)
Spin-rotation constants                 ...  NO (   0 nuclei)
Spin-spin couplings                     ...  NO (   0 nuclei,    0 pairs)

Choice of magnetic origin               ... GIAO
Position of magnetic origin             ...     0.000000     0.000000     0.000000

Properties with geometric perturbations:
SCF Hessian                             ...  NO
IR spectrum                             ...  NO
VCD spectrum                            ...  NO
X-ray spectroscopy properties:
SCF XES/XAS/RIXS spectra                ...  NO


-------------
DIPOLE MOMENT
-------------

Method             : SCF
Type of density    : Electron Density
Multiplicity       :   3
Irrep              :   0
Energy             :  -908.7157918883178809 Eh
Relativity type    : 
Basis              : AO
                                X                 Y                 Z
Electronic contribution:     -3.874479595      -8.851724793      -5.298135018
Nuclear contribution   :      3.534234004       9.716802997       7.887226320
                        -----------------------------------------
Total Dipole Moment    :     -0.340245590       0.865078204       2.589091302
                        -----------------------------------------
Magnitude (a.u.)       :      2.750912781
Magnitude (Debye)      :      6.992264606



--------------------
Rotational spectrum 
--------------------
 
Rotational constants in cm-1:             0.018827             0.012500             0.010679 
Rotational constants in MHz :           564.420466           374.729117           320.152907 

Dipole components along the rotational axes: 
x,y,z [a.u.] :    -1.340752     0.999701    -2.184148 
x,y,z [Debye]:    -3.407921     2.541039    -5.551663 

 

-------------
DIPOLE MOMENT
-------------

Method             : TDA/CIS
Type of density    : Electron Density
Level              : Relaxed density
State              :   2
Multiplicity       :   3
Irrep              :   0
Energy             :     0.0000000000000000 Eh
Relativity type    : 
Basis              : AO
                                X                 Y                 Z
Electronic contribution:     -3.920329742      -8.954454187      -5.293855866
Nuclear contribution   :      3.534234004       9.716802997       7.887226320
                        -----------------------------------------
Total Dipole Moment    :     -0.386095738       0.762348810       2.593370454
                        -----------------------------------------
Magnitude (a.u.)       :      2.730534003
Magnitude (Debye)      :      6.940465867



--------------------
Rotational spectrum 
--------------------
 
Rotational constants in cm-1:             0.018827             0.012500             0.010679 
Rotational constants in MHz :           564.420466           374.729117           320.152907 

Dipole components along the rotational axes: 
x,y,z [a.u.] :    -1.352666     0.888763    -2.199139 
x,y,z [Debye]:    -3.438203     2.259057    -5.589766 

 

Dipole moment calculation done in   0.2 sec 

Maximum memory used throughout the entire PROP-calculation: 80.7 MB
[1739918568.790317] [ohm:554100:0]        ib_iface.c:1059 UCX  ERROR ibv_create_cq(cqe=256) failed: Connection timed out
[1739918568.797263] [ohm:554097:0]        ib_iface.c:1059 UCX  ERROR ibv_create_cq(cqe=256) failed: Connection timed out
[1739918568.829931] [ohm:554098:0]        ib_iface.c:1059 UCX  ERROR ibv_create_cq(cqe=256) failed: Connection timed out
[1739918568.847332] [ohm:554101:0]        ib_iface.c:1059 UCX  ERROR ibv_create_cq(cqe=256) failed: Connection timed out
[1739918568.850059] [ohm:554102:0]        ib_iface.c:1059 UCX  ERROR ibv_create_cq(cqe=256) failed: Connection timed out
[1739918568.852947] [ohm:554111:0]        ib_iface.c:1059 UCX  ERROR ibv_create_cq(cqe=256) failed: Connection timed out
[1739918568.854329] [ohm:554114:0]        ib_iface.c:1059 UCX  ERROR ibv_create_cq(cqe=256) failed: Connection timed out
[1739918568.859332] [ohm:554120:0]        ib_iface.c:1059 UCX  ERROR ibv_create_cq(cqe=256) failed: Connection timed out
[1739918568.861699] [ohm:554113:0]        ib_iface.c:1059 UCX  ERROR ibv_create_cq(cqe=256) failed: Connection timed out
[1739918568.861844] [ohm:554117:0]        ib_iface.c:1059 UCX  ERROR ibv_create_cq(cqe=256) failed: Connection timed out
[1739918568.864621] [ohm:554115:0]        ib_iface.c:1059 UCX  ERROR ibv_create_cq(cqe=256) failed: Connection timed out
[1739918568.868666] [ohm:554104:0]        ib_iface.c:1059 UCX  ERROR ibv_create_cq(cqe=256) failed: Connection timed out
[1739918568.868903] [ohm:554220:0]        ib_iface.c:1059 UCX  ERROR ibv_create_cq(cqe=256) failed: Connection timed out
[1739918568.885881] [ohm:554116:0]        ib_iface.c:1059 UCX  ERROR ibv_create_cq(cqe=256) failed: Connection timed out
[1739918568.889259] [ohm:554124:0]        ib_iface.c:1059 UCX  ERROR ibv_create_cq(cqe=256) failed: Connection timed out
[1739918568.889982] [ohm:554122:0]        ib_iface.c:1059 UCX  ERROR ibv_create_cq(cqe=256) failed: Connection timed out
[1739918568.900349] [ohm:554167:0]        ib_iface.c:1059 UCX  ERROR ibv_create_cq(cqe=256) failed: Connection timed out
[1739918568.901766] [ohm:554151:0]        ib_iface.c:1059 UCX  ERROR ibv_create_cq(cqe=256) failed: Connection timed out
[1739918568.907748] [ohm:554198:0]        ib_iface.c:1059 UCX  ERROR ibv_create_cq(cqe=256) failed: Connection timed out
[1739918568.915005] [ohm:554103:0]        ib_iface.c:1059 UCX  ERROR ibv_create_cq(cqe=256) failed: Connection timed out
[1739918568.937167] [ohm:554193:0]        ib_iface.c:1059 UCX  ERROR ibv_create_cq(cqe=256) failed: Connection timed out
[1739918568.943484] [ohm:554165:0]        ib_iface.c:1059 UCX  ERROR ibv_create_cq(cqe=256) failed: Connection timed out
[1739918568.961814] [ohm:554234:0]        ib_iface.c:1059 UCX  ERROR ibv_create_cq(cqe=256) failed: Connection timed out
[1739918568.962109] [ohm:554200:0]        ib_iface.c:1059 UCX  ERROR ibv_create_cq(cqe=256) failed: Connection timed out
[1739918568.972238] [ohm:554244:0]        ib_iface.c:1059 UCX  ERROR ibv_create_cq(cqe=256) failed: Connection timed out
[1739918568.990502] [ohm:554149:0]        ib_iface.c:1059 UCX  ERROR ibv_create_cq(cqe=256) failed: Connection timed out
[1739918569.001810] [ohm:554192:0]        ib_iface.c:1059 UCX  ERROR ibv_create_cq(cqe=256) failed: Connection timed out
[1739918569.040863] [ohm:554180:0]        ib_iface.c:1059 UCX  ERROR ibv_create_cq(cqe=256) failed: Connection timed out
[1739918569.041050] [ohm:554210:0]        ib_iface.c:1059 UCX  ERROR ibv_create_cq(cqe=256) failed: Connection timed out
[1739918569.041921] [ohm:554176:0]        ib_iface.c:1059 UCX  ERROR ibv_create_cq(cqe=256) failed: Connection timed out
[1739918569.043329] [ohm:554208:0]        ib_iface.c:1059 UCX  ERROR ibv_create_cq(cqe=256) failed: Connection timed out
[1739918569.045164] [ohm:554256:0]        ib_iface.c:1059 UCX  ERROR ibv_create_cq(cqe=256) failed: Connection timed out
[1739918569.049045] [ohm:554218:0]        ib_iface.c:1059 UCX  ERROR ibv_create_cq(cqe=256) failed: Connection timed out
[1739918569.053846] [ohm:554250:0]        ib_iface.c:1059 UCX  ERROR ibv_create_cq(cqe=256) failed: Connection timed out
[1739918569.057018] [ohm:554204:0]        ib_iface.c:1059 UCX  ERROR ibv_create_cq(cqe=256) failed: Connection timed out
[1739918569.062262] [ohm:554112:0]        ib_iface.c:1059 UCX  ERROR ibv_create_cq(cqe=256) failed: Connection timed out
[1739918569.068884] [ohm:554232:0]        ib_iface.c:1059 UCX  ERROR ibv_create_cq(cqe=256) failed: Connection timed out
[1739918569.069761] [ohm:554188:0]        ib_iface.c:1059 UCX  ERROR ibv_create_cq(cqe=256) failed: Connection timed out
[1739918569.077985] [ohm:554143:0]        ib_iface.c:1059 UCX  ERROR ibv_create_cq(cqe=256) failed: Connection timed out
[1739918569.082822] [ohm:554128:0]        ib_iface.c:1059 UCX  ERROR ibv_create_cq(cqe=256) failed: Connection timed out
[1739918569.086863] [ohm:554126:0]        ib_iface.c:1059 UCX  ERROR ibv_create_cq(cqe=256) failed: Connection timed out
[1739918569.089698] [ohm:554105:0]        ib_iface.c:1059 UCX  ERROR ibv_create_cq(cqe=256) failed: Connection timed out
[1739918569.089722] [ohm:554134:0]        ib_iface.c:1059 UCX  ERROR ibv_create_cq(cqe=256) failed: Connection timed out
[1739918569.092324] [ohm:554131:0]        ib_iface.c:1059 UCX  ERROR ibv_create_cq(cqe=256) failed: Connection timed out
[1739918569.092655] [ohm:554099:0]        ib_iface.c:1059 UCX  ERROR ibv_create_cq(cqe=256) failed: Connection timed out
[1739918569.093104] [ohm:554130:0]        ib_iface.c:1059 UCX  ERROR ibv_create_cq(cqe=256) failed: Connection timed out
[1739918569.095046] [ohm:554146:0]        ib_iface.c:1059 UCX  ERROR ibv_create_cq(cqe=256) failed: Connection timed out
[1739918569.097448] [ohm:554127:0]        ib_iface.c:1059 UCX  ERROR ibv_create_cq(cqe=256) failed: Connection timed out
[1739918569.107761] [ohm:554139:0]        ib_iface.c:1059 UCX  ERROR ibv_create_cq(cqe=256) failed: Connection timed out
[1739918569.113961] [ohm:554118:0]        ib_iface.c:1059 UCX  ERROR ibv_create_cq(cqe=256) failed: Connection timed out
[1739918569.115166] [ohm:554154:0]        ib_iface.c:1059 UCX  ERROR ibv_create_cq(cqe=256) failed: Connection timed out
[1739918569.120719] [ohm:554226:0]        ib_iface.c:1059 UCX  ERROR ibv_create_cq(cqe=256) failed: Connection timed out
[1739918569.123326] [ohm:554123:0]        ib_iface.c:1059 UCX  ERROR ibv_create_cq(cqe=256) failed: Connection timed out
[1739918569.125923] [ohm:554125:0]        ib_iface.c:1059 UCX  ERROR ibv_create_cq(cqe=256) failed: Connection timed out
[1739918569.127373] [ohm:554121:0]        ib_iface.c:1059 UCX  ERROR ibv_create_cq(cqe=256) failed: Connection timed out
[1739918569.127944] [ohm:554225:0]        ib_iface.c:1059 UCX  ERROR ibv_create_cq(cqe=256) failed: Connection timed out
[1739918569.131291] [ohm:554195:0]        ib_iface.c:1059 UCX  ERROR ibv_create_cq(cqe=256) failed: Connection timed out
[1739918569.131484] [ohm:554173:0]        ib_iface.c:1059 UCX  ERROR ibv_create_cq(cqe=256) failed: Connection timed out
[1739918569.132138] [ohm:554119:0]        ib_iface.c:1059 UCX  ERROR ibv_create_cq(cqe=256) failed: Connection timed out
[1739918569.132211] [ohm:554160:0]        ib_iface.c:1059 UCX  ERROR ibv_create_cq(cqe=256) failed: Connection timed out
[1739918569.133175] [ohm:554237:0]        ib_iface.c:1059 UCX  ERROR ibv_create_cq(cqe=256) failed: Connection timed out
[1739918569.136219] [ohm:554184:0]        ib_iface.c:1059 UCX  ERROR ibv_create_cq(cqe=256) failed: Connection timed out
[1739918569.137366] [ohm:554158:0]        ib_iface.c:1059 UCX  ERROR ibv_create_cq(cqe=256) failed: Connection timed out
[1739918569.137880] [ohm:554230:0]        ib_iface.c:1059 UCX  ERROR ibv_create_cq(cqe=256) failed: Connection timed out

--------------------------------
SUGGESTED CITATIONS FOR THIS RUN
--------------------------------

Below you find a list of papers that are relevant to this ORCA run
We neither can nor want to force you to cite these papers, but we appreciate if you do
You receive ORCA, which is the product of decades of hard work by many enthusiastic individuals, for free
The only thing we kindly ask in return is that you cite our papers,
We deeply appreciate it, if you show your appreciation for ORCA by not just citing the generic ORCA reference.

Please note that relegating all ORCA citations to the supporting information does *not* help us.
SI sections are not indexed - citations you put there will not count into any citation statistics
But we need these citations in order to attract the funding resources that allow us to do what we are doing

Therefore, if you are a happy ORCA user, please consider citing a few of the papers listed below in the main body of your paper

In addition to the list printed below, the program has created the file orca.bibtex that contains the list in bibtex format
You can import this file easily into all common literature databanks and citation aid programs


List of essential papers. We consider these as the minimum necessary citations

  1. Neese,F.
     Software update: the ORCA program system, version 5.0
     WIRES Comput. Molec. Sci., 2022 12(1)e1606
     doi.org/10.1002/wcms.1606

List of papers to cite with high priority. The work reported in these papers was absolutely
necessary for this run to complete.
Our perspective: the developers of density functionals and basis sets usually get cited in chemistry papers
Good! But without the algorithms to do something with them, the functionals or basis sets would not do anything.
Hence, in our opinion, the algorithm design and method developments papers are equally worthy of getting cited

  1. Neese,F.; Olbrich,G.
     Efficient use of the resolution of the identity approximation in time-dependent density functional calculations with hybrid density functionals
     Chem. Phys. Lett., 2002 362 170-178
     doi.org/10.1016/s0009-2614(02)01053-9
  2. Neese,F.
     An improvement of the resolution of the identity approximation for the formation of the Coulomb matrix
     J. Comp. Chem., 2003 24(14)1740-1747
     doi.org/10.1002/jcc.10318
  3. Neese,F.; Wennmohs,F.; Hansen,A.; Becker,U.
     Efficient, approximate and parallel Hartree-Fock and hybrid DFT calculations. A 'chain-of-spheres' algorithm for the Hartree-Fock exchange
     Chem. Phys., 2009 356(1-3)98-109
     doi.org/10.1016/j.chemphys.2008.10.036
  4. Petrenko,T.; Kossmann,S.; Neese,F.
     Efficient time-dependent density functional theory approximations for hybrid density functionals: Analytical gradients and parallelization
     J. Chem. Phys., 2011 134 054116
     doi.org/10.1063/1.3533441
  5. Helmich-Paris,B.; de Souza,B.; Neese,F.; Izsák,R.
     An improved chain of spheres for exchange algorithm
     J. Chem. Phys., 2021 155 104109
     doi.org/doi: 10.1063/5.0058766.
  6. Neese,F.
     The SHARK Integral Generation and Digestion System
     J. Comp. Chem., 2022  1-16
     doi.org/10.1002/jcc.26942
  7. Lehtola,S.; Steigemann,C.; Oliveira,M.; Marques,M.
     Recent developments in Libxc - A comprehensive library of functionals for density functional theory
     Software X, 2018 7 
     doi.org/10.1016/j.softx.2017.11.002
  8. Grimme,S.; Antony,J.; Ehrlich,S.; Krieg,H.
     A consistent and accurate ab initio parametrization of density functional dispersion correction (DFT-D) for the 94 elements H-Pu
     J. Chem. Phys., 2010 132 154104-XXXX
     doi.org/10.1063/1.3382344
  9. Grimme,S.; Ehrlich,S.; Goerigk,L.
     Effect of the damping function in dispersion corrected density functional theory
     J. Comput. Chem., 2011 32(7)1456-1465
     doi.org/10.1002/jcc.21759

List of suggested additional citations. These are papers that are important in the 'surrounding' of 
of this run, or papers that preceded the highly important papers. If you like your results we are grateful for a citation.

  1. Izsak,R.; Neese,F.
     An overlap fitted chain of spheres exchange method
     J. Chem. Phys., 2011 135 144105
     doi.org/10.1063/1.3646921
  2. Izsak,R.; Hansen,A.; Neese,F.
     The resolution of identity and chain of spheres approximations for the LPNO-CCSD singles Fock term
     Molec. Phys., 2012 110 2413-2417
     doi.org/10.1080/00268976.2012.687466
  3. Neese,F.
     The ORCA program system
     WIRES Comput. Molec. Sci., 2012 2(1)73-78
     doi.org/10.1002/wcms.81
  4. Izsak,R.; Neese,F.; Klopper,W.
     Robust fitting techniques in the chain of spheres approximation to the Fock exchange: The role of the complementary space
     J. Chem. Phys., 2013 139 
     doi.org/10.1063/1.4819264
  5. Neese,F.
     Software update: the ORCA program system, version 4.0
     WIRES Comput. Molec. Sci., 2018 8(1)1-6
     doi.org/10.1002/wcms.1327
  6. Neese,F.; Wennmohs,F.; Becker,U.; Riplinger,C.
     The ORCA quantum chemistry program package
     J. Chem. Phys., 2020 152 Art. No. L224108
     doi.org/10.1063/5.0004608

List of optional additional citations

  1. Neese,F.
     Approximate second-order SCF convergence for spin unrestricted wavefunctions
     Chem. Phys. Lett., 2000 325(1-3)93-98
     doi.org/10.1016/s0009-2614(00)00662-x

Timings for individual modules:

Sum of individual times          ...      322.426 sec (=   5.374 min)
Startup calculation              ...        6.281 sec (=   0.105 min)   1.9 %
SCF iterations                   ...      161.836 sec (=   2.697 min)  50.2 %
Property integrals               ...        4.375 sec (=   0.073 min)   1.4 %
Property calculations            ...        2.909 sec (=   0.048 min)   0.9 %
CIS module                       ...      147.025 sec (=   2.450 min)  45.6 %
                             ****ORCA TERMINATED NORMALLY****
TOTAL RUN TIME: 0 days 0 hours 5 minutes 24 seconds 587 msec
