
                                 *****************
                                 * O   R   C   A *
                                 *****************

                                            #,                                       
                                            ###                                      
                                            ####                                     
                                            #####                                    
                                            ######                                   
                                           ########,                                 
                                     ,,################,,,,,                         
                               ,,#################################,,                 
                          ,,##########################################,,             
                       ,#########################################, ''#####,          
                    ,#############################################,,   '####,        
                  ,##################################################,,,,####,       
                ,###########''''           ''''###############################       
              ,#####''   ,,,,##########,,,,          '''####'''          '####       
            ,##' ,,,,###########################,,,                        '##       
           ' ,,###''''                  '''############,,,                           
         ,,##''                                '''############,,,,        ,,,,,,###''
      ,#''                                            '''#######################'''  
     '                                                          ''''####''''         
             ,#######,   #######,   ,#######,      ##                                
            ,#'     '#,  ##    ##  ,#'     '#,    #''#        ,####,   ,####,        
            ##       ##  ##   ,#'  ##            #'  '#       #'       #'  '#        
            ##       ##  #######   ##           ,######,      #####,   #    #        
            '#,     ,#'  ##    ##  '#,     ,#' ,#      #,     #,   #   #,  ,#        
             '#######'   ##     ##  '#######'  #'      '#     '####' # '####'        



                #########################################################
                #                        -***-                          #
                #          Department of theory and spectroscopy        #
                #                                                       #
                #                      Frank Neese                      #
                #                                                       #
                #     Directorship, Architecture, Infrastructure        #
                #                    SHARK, DRIVERS                     #
                #        Core code/Algorithms in most modules           #
                #                                                       #
                #        Max Planck Institute fuer Kohlenforschung      #
                #                Kaiser Wilhelm Platz 1                 #
                #                 D-45470 Muelheim/Ruhr                 #
                #                      Germany                          #
                #                                                       #
                #                  All rights reserved                  #
                #                        -***-                          #
                #########################################################


                         Program Version 6.0.0  -   RELEASE  -


 With contributions from (in alphabetic order):
   Daniel Aravena         : Magnetic Suceptibility
   Michael Atanasov       : Ab Initio Ligand Field Theory (pilot matlab implementation)
   Alexander A. Auer      : GIAO ZORA, VPT2 properties, NMR spectrum
   Ute Becker             : All parallelization in ORCA, NUMFREQ, NUMCALC
   Giovanni Bistoni       : ED, misc. LED, open-shell LED, HFLD
   Martin Brehm           : Molecular dynamics
   Dmytro Bykov           : pre 5.0 version of the SCF Hessian
   Marcos Casanova-Páez   : Triplet and SCS-CIS(D). UHF-(DLPNO)-IP/EA/STEOM-CCSD. UHF-CVS-IP/STEOM-CCSD
   Vijay G. Chilkuri      : MRCI spin determinant printing, contributions to CSF-ICE
   Pauline Colinet        : FMM embedding
   Dipayan Datta          : RHF DLPNO-CCSD density
   Achintya Kumar Dutta   : EOM-CC, STEOM-CC
   Nicolas Foglia         : Exact transition moments, OPA infrastructure, MCD improvements
   Dmitry Ganyushin       : Spin-Orbit,Spin-Spin,Magnetic field MRCI
   Miquel Garcia          : C-PCM and meta-GGA Hessian, CCSD/C-PCM, Gaussian charge scheme
   Tiago L. C. Gouveia    : GS-ROHF, GS-ROCIS
   Yang Guo               : DLPNO-NEVPT2, F12-NEVPT2, CIM, IAO-localization
   Andreas Hansen         : Spin unrestricted coupled pair/coupled cluster methods
   Ingolf Harden          : AUTO-CI MPn and infrastructure 
   Benjamin Helmich-Paris : MC-RPA, TRAH-(SCF,CASSCF), AVAS, COSX integrals, SCF dyn. polar.
   Lee Huntington         : MR-EOM, pCC
   Robert Izsak           : Overlap fitted RIJCOSX, COSX-SCS-MP3, EOM
   Riya Kayal             : Wick's Theorem for AUTO-CI, AUTO-CI UHF-CCSDT
   Emily Kempfer          : AUTO-CI, RHF CISDT and CCSDT
   Christian Kollmar      : KDIIS, OOCD, Brueckner-CCSD(T), CCSD density, CASPT2, CASPT2-K, improved NEVPT2
   Axel Koslowski         : Symmetry handling
   Simone Kossmann        : Meta GGA functionals, TD-DFT gradient, OOMP2, (MP2 Hessian; deprecated post 5.0)
   Lucas Lang             : DCDCAS
   Marvin Lechner         : AUTO-CI (C++ implementation), FIC-MRCC
   Spencer Leger          : CASSCF response
   Dagmar Lenk            : GEPOL surface, SMD, ORCA-2-JSON
   Dimitrios Liakos       : Extrapolation schemes; Compound Job, initial MDCI parallelization
   Dimitrios Manganas     : Further ROCIS development; embedding schemes. LFT, Crystal Embedding
   Dimitrios Pantazis     : SARC Basis sets
   Anastasios Papadopoulos: AUTO-CI, single reference methods and gradients
   Taras Petrenko         : pre 6.0 DFT Hessian and TD-DFT gradient, (ASA, deprecated), ECA, 1-Electron XAS/XES, NRVS
   Peter Pinski           : DLPNO-MP2, DLPNO-MP2 Gradient
   Christoph Reimann      : Effective Core Potentials
   Marius Retegan         : Local ZFS, SOC
   Christoph Riplinger    : Optimizer, TS searches, QM/MM, DLPNO-CCSD(T), (RO)-DLPNO pert. Triples
   Michael Roemelt        : Original ROCIS implementation
   Masaaki Saitow         : Open-shell DLPNO-CCSD energy and density
   Barbara Sandhoefer     : DKH picture change effects
   Kantharuban Sivalingam : CASSCF convergence/infrastructure, NEVPT2 and variants, FIC-MRCI
   Bernardo de Souza      : ESD, SOC TD-DFT
   Georgi Stoychev        : AutoAux, RI-MP2 NMR, DLPNO-MP2 response, X2C
   Van Anh Tran           : RI-MP2 g-tensors
   Willem Van den Heuvel  : Paramagnetic NMR
   Zikuan Wang            : NOTCH, Electric field optimization 
   Frank Wennmohs         : Technical directorship and infrastructure
   Hang Xu                : AUTO-CI-Response properties 


 We gratefully acknowledge several colleagues who have allowed us to
 interface, adapt or use parts of their codes:
   Stefan Grimme, W. Hujo, H. Kruse, P. Pracht,  : VdW corrections, initial TS optimization,
                  C. Bannwarth, S. Ehlert,         DFT functionals, gCP, sTDA/sTD-DF
                  L. Wittmann, M. Mueller
   Ed Valeev, F. Pavosevic, A. Kumar             : LibInt (2-el integral package), F12 methods
   Garnet Chan, S. Sharma, J. Yang, R. Olivares  : DMRG
   Ulf Ekstrom                                   : XCFun DFT Library
   Mihaly Kallay                                 : mrcc  (arbitrary order and MRCC methods)
   Frank Weinhold                                : gennbo (NPA and NBO analysis)
   Simon Mueller                                 : openCOSMO-RS
   Christopher J. Cramer and Donald G. Truhlar   : smd solvation model
   Lars Goerigk                                  : TD-DFT with DH, B97 family of functionals
   V. Asgeirsson, H. Jonsson                     : NEB implementation
   FAccTs GmbH                                   : IRC, NEB, NEB-TS, DLPNO-Multilevel, CI-OPT
                                                   MM, QMMM, 2- and 3-layer-ONIOM, Crystal-QMMM,
                                                   LR-CPCM, SF, NACMEs, symmetry and pop. for TD-DFT,
                                                   nearIR, NL-DFT gradient (VV10), updates on ESD,
                                                   ML-optimized integration grids, MBIS, APM,
                                                   GOAT, DOCKER, SOLVATOR, interface openCOSMO-RS
   S Lehtola, MJT Oliveira, MAL Marques          : LibXC Library
   Liviu Ungur et al                             : ANISO software


 Your calculation uses the libint2 library for the computation of 2-el integrals
 For citations please refer to: http://libint.valeyev.net

 Your ORCA version has been built with support for libXC version: 6.2.2
 For citations please refer to: https://libxc.gitlab.io

 This ORCA versions uses:
   CBLAS   interface :  Fast vector & matrix operations
   LAPACKE interface :  Fast linear algebra routines
   SCALAPACK package :  Parallel linear algebra routines
   Shared memory     :  Shared parallel matrices
   BLAS/LAPACK       :  OpenBLAS 0.3.27  USE64BITINT DYNAMIC_ARCH NO_AFFINITY Zen SINGLE_THREADED
        Core in use  :  Zen
   Copyright (c) 2011-2014, The OpenBLAS Project


Your calculation utilizes the atom-pairwise dispersion correction
with the Becke-Johnson damping scheme (D3BJ)


Warning: RI is on but no J-basis has been assigned. Assigning Def2/J (nothing to worry about!)
================================================================================

----- Orbital basis set information -----
Your calculation utilizes the basis: def2-TZVPPD
   F. Weigend and R. Ahlrichs, Phys. Chem. Chem. Phys. 7, 3297 (2005).
   D. Rappoport and F. Furche, J. Chem. Phys. 133, 134105 (2010)
   D. Rappoport, J. Chem. Phys. 155, 124102 (2021).

----- AuxJ basis set information -----
Your calculation utilizes the auxiliary basis: def2/J
   F. Weigend, Phys. Chem. Chem. Phys. 8, 1057 (2006).

================================================================================
                                        WARNINGS
                       Please study these warnings very carefully!
================================================================================

Using LibXC functional ID 531 : wB97M-V exchange-correlation functional
[ 1]  N. Mardirossian and M. Head-Gordon.,  J. Chem. Phys. 144, 214110 (2016)
Using LibXC functional ID 531 : wB97M-V exchange-correlation functional
[ 1]  N. Mardirossian and M. Head-Gordon.,  J. Chem. Phys. 144, 214110 (2016)

WARNING: B97M-V or wB97M-V functional requested.
  ===> : libXC variant has now been activated.
         Any manually given DFX/HFX/RangeSep scaling parameters are IGNORED!

Your calculation utilizes LibXC
 by S Lehtola, C Steigemann, MJT Oliveira & MAL Marques
Please cite in your paper:
 S Lehtola, C Steigemann, MJT Oliveira & MAL Marques, SoftwareX, 7, (2018), 1.
   


WARNING: your system is open-shell and RHF/RKS was chosen
  ===> : WILL SWITCH to UHF/UKS

INFO   : Checking CIS options ...

WARNING: CIS/ROCIS methods need fully converged wavefunctions
  ===> : Setting SCFConvForced true
         You can overwrite this default with %scf ConvForced false 


================================================================================
                                       INPUT FILE
================================================================================
NAME = orca.inp
|  1> ! Engrad def2-TZVPPD wB97M-D3BJ 
|  2> %pal nprocs 8 end%pal nprocs 64 end 
|  3> %tddft 
|  4>  Iroot 2 Nroots 3 
|  5> sf true 
|  6> end 
|  7> *xyz 0 3 
|  8> O   0.14815196 0.98975836 0.77363018
|  9> C   0.48484332 -0.29568504 0.42404743
| 10> C   0.57308319 -0.55948854 -1.0441604
| 11> H   -0.17985843 -0.98079525 0.97689772
| 12> H   1.45240992 -0.65339377 0.698754
| 13> H   1.55463428 -0.96070749 -1.6098195
| 14> H   -0.02962529 -0.11310844 -1.76950794
| 15> *
| 16> 
| 17>                          ****END OF INPUT****
================================================================================

                     *******************************
                     * Energy+Gradient Calculation *
                     *******************************

---------------------------------
CARTESIAN COORDINATES (ANGSTROEM)
---------------------------------
  O      0.148152    0.989758    0.773630
  C      0.484843   -0.295685    0.424047
  C      0.573083   -0.559489   -1.044160
  H     -0.179858   -0.980795    0.976898
  H      1.452410   -0.653394    0.698754
  H      1.554634   -0.960707   -1.609819
  H     -0.029625   -0.113108   -1.769508

----------------------------
CARTESIAN COORDINATES (A.U.)
----------------------------
  NO LB      ZA    FRAG     MASS         X           Y           Z
   0 O     8.0000    0    15.999    0.279967    1.870372    1.461949
   1 C     6.0000    0    12.011    0.916221   -0.558764    0.801334
   2 C     6.0000    0    12.011    1.082970   -1.057280   -1.973177
   3 H     1.0000    0     1.008   -0.339883   -1.853434    1.846069
   4 H     1.0000    0     1.008    2.744657   -1.234735    1.320454
   5 H     1.0000    0     1.008    2.937833   -1.815474   -3.042118
   6 H     1.0000    0     1.008   -0.055984   -0.213744   -3.343885

--------------------------------
INTERNAL COORDINATES (ANGSTROEM)
--------------------------------
 O      0   0   0     0.000000000000     0.00000000     0.00000000
 C      1   0   0     1.374021071745     0.00000000     0.00000000
 C      2   1   0     1.494326869645   115.44229383     0.00000000
 H      2   1   3     1.103108271863   107.81046559   230.24952211
 H      2   1   3     1.067522533980   118.04127513   115.41991591
 H      3   2   1     1.201827527365   124.72242217   121.47201894
 H      3   2   1     1.043379968815   124.98785574   325.71213129

---------------------------
INTERNAL COORDINATES (A.U.)
---------------------------
 O      0   0   0     0.000000000000     0.00000000     0.00000000
 C      1   0   0     2.596523527835     0.00000000     0.00000000
 C      2   1   0     2.823868538189   115.44229383     0.00000000
 H      2   1   3     2.084572529884   107.81046559   230.24952211
 H      2   1   3     2.017325231012   118.04127513   115.41991591
 H      3   2   1     2.271124886927   124.72242217   121.47201894
 H      3   2   1     1.971702394679   124.98785574   325.71213129

---------------------
BASIS SET INFORMATION
---------------------
There are 3 groups of distinct atoms

 Group   1 Type O   : 12s7p3d1f contracted to 6s4p3d1f pattern {621111/4111/111/1}
 Group   2 Type C   : 12s6p3d1f contracted to 6s3p3d1f pattern {621111/411/111/1}
 Group   3 Type H   : 5s3p1d contracted to 3s3p1d pattern {311/111/1}

Atom   0O    basis set group =>   1
Atom   1C    basis set group =>   2
Atom   2C    basis set group =>   2
Atom   3H    basis set group =>   3
Atom   4H    basis set group =>   3
Atom   5H    basis set group =>   3
Atom   6H    basis set group =>   3
---------------------------------
AUXILIARY/J BASIS SET INFORMATION
---------------------------------
There are 3 groups of distinct atoms

 Group   1 Type O   : 12s5p4d2f1g contracted to 6s4p3d1f1g pattern {711111/2111/211/2/1}
 Group   2 Type C   : 12s5p4d2f1g contracted to 6s4p3d1f1g pattern {711111/2111/211/2/1}
 Group   3 Type H   : 5s2p1d contracted to 3s1p1d pattern {311/2/1}

Atom   0O    basis set group =>   1
Atom   1C    basis set group =>   2
Atom   2C    basis set group =>   2
Atom   3H    basis set group =>   3
Atom   4H    basis set group =>   3
Atom   5H    basis set group =>   3
Atom   6H    basis set group =>   3
[1741611729.051991] [ohm:3530543:0]        ib_iface.c:1059 UCX  ERROR ibv_create_cq(cqe=256) failed: Connection timed out
[1741611729.066607] [ohm:3530536:0]        ib_iface.c:1059 UCX  ERROR ibv_create_cq(cqe=256) failed: Connection timed out
[1741611729.069940] [ohm:3530531:0]        ib_iface.c:1059 UCX  ERROR ibv_create_cq(cqe=256) failed: Connection timed out
[1741611729.073604] [ohm:3530532:0]        ib_iface.c:1059 UCX  ERROR ibv_create_cq(cqe=256) failed: Connection timed out
[1741611729.080215] [ohm:3530533:0]        ib_iface.c:1059 UCX  ERROR ibv_create_cq(cqe=256) failed: Connection timed out
[1741611729.080916] [ohm:3530530:0]        ib_iface.c:1059 UCX  ERROR ibv_create_cq(cqe=256) failed: Connection timed out
[1741611729.084433] [ohm:3530534:0]        ib_iface.c:1059 UCX  ERROR ibv_create_cq(cqe=256) failed: Connection timed out
[1741611729.094638] [ohm:3530540:0]        ib_iface.c:1059 UCX  ERROR ibv_create_cq(cqe=256) failed: Connection timed out
[1741611729.099361] [ohm:3530541:0]        ib_iface.c:1059 UCX  ERROR ibv_create_cq(cqe=256) failed: Connection timed out
[1741611729.101401] [ohm:3530584:0]        ib_iface.c:1059 UCX  ERROR ibv_create_cq(cqe=256) failed: Connection timed out
[1741611729.104454] [ohm:3530538:0]        ib_iface.c:1059 UCX  ERROR ibv_create_cq(cqe=256) failed: Connection timed out
[1741611729.124139] [ohm:3530608:0]        ib_iface.c:1059 UCX  ERROR ibv_create_cq(cqe=256) failed: Connection timed out
[1741611729.135808] [ohm:3530587:0]        ib_iface.c:1059 UCX  ERROR ibv_create_cq(cqe=256) failed: Connection timed out
[1741611729.144714] [ohm:3530570:0]        ib_iface.c:1059 UCX  ERROR ibv_create_cq(cqe=256) failed: Connection timed out
[1741611729.146158] [ohm:3530657:0]        ib_iface.c:1059 UCX  ERROR ibv_create_cq(cqe=256) failed: Connection timed out
[1741611729.149889] [ohm:3530564:0]        ib_iface.c:1059 UCX  ERROR ibv_create_cq(cqe=256) failed: Connection timed out
[1741611729.170793] [ohm:3530539:0]        ib_iface.c:1059 UCX  ERROR ibv_create_cq(cqe=256) failed: Connection timed out
[1741611729.172340] [ohm:3530621:0]        ib_iface.c:1059 UCX  ERROR ibv_create_cq(cqe=256) failed: Connection timed out
[1741611729.173841] [ohm:3530666:0]        ib_iface.c:1059 UCX  ERROR ibv_create_cq(cqe=256) failed: Connection timed out
[1741611729.174458] [ohm:3530630:0]        ib_iface.c:1059 UCX  ERROR ibv_create_cq(cqe=256) failed: Connection timed out
[1741611729.174676] [ohm:3530586:0]        ib_iface.c:1059 UCX  ERROR ibv_create_cq(cqe=256) failed: Connection timed out
[1741611729.179710] [ohm:3530597:0]        ib_iface.c:1059 UCX  ERROR ibv_create_cq(cqe=256) failed: Connection timed out
[1741611729.179894] [ohm:3530602:0]        ib_iface.c:1059 UCX  ERROR ibv_create_cq(cqe=256) failed: Connection timed out
[1741611729.187424] [ohm:3530644:0]        ib_iface.c:1059 UCX  ERROR ibv_create_cq(cqe=256) failed: Connection timed out
[1741611729.192084] [ohm:3530593:0]        ib_iface.c:1059 UCX  ERROR ibv_create_cq(cqe=256) failed: Connection timed out
[1741611729.206526] [ohm:3530599:0]        ib_iface.c:1059 UCX  ERROR ibv_create_cq(cqe=256) failed: Connection timed out
[1741611729.216709] [ohm:3530606:0]        ib_iface.c:1059 UCX  ERROR ibv_create_cq(cqe=256) failed: Connection timed out
[1741611729.217838] [ohm:3530615:0]        ib_iface.c:1059 UCX  ERROR ibv_create_cq(cqe=256) failed: Connection timed out
[1741611729.217935] [ohm:3530640:0]        ib_iface.c:1059 UCX  ERROR ibv_create_cq(cqe=256) failed: Connection timed out
[1741611729.226661] [ohm:3530680:0]        ib_iface.c:1059 UCX  ERROR ibv_create_cq(cqe=256) failed: Connection timed out
[1741611729.232276] [ohm:3530596:0]        ib_iface.c:1059 UCX  ERROR ibv_create_cq(cqe=256) failed: Connection timed out
[1741611729.250778] [ohm:3530542:0]        ib_iface.c:1059 UCX  ERROR ibv_create_cq(cqe=256) failed: Connection timed out
[1741611729.264318] [ohm:3530684:0]        ib_iface.c:1059 UCX  ERROR ibv_create_cq(cqe=256) failed: Connection timed out
[1741611729.274798] [ohm:3530580:0]        ib_iface.c:1059 UCX  ERROR ibv_create_cq(cqe=256) failed: Connection timed out
[1741611729.275430] [ohm:3530598:0]        ib_iface.c:1059 UCX  ERROR ibv_create_cq(cqe=256) failed: Connection timed out
[1741611729.280842] [ohm:3530535:0]        ib_iface.c:1059 UCX  ERROR ibv_create_cq(cqe=256) failed: Connection timed out
[1741611729.284131] [ohm:3530588:0]        ib_iface.c:1059 UCX  ERROR ibv_create_cq(cqe=256) failed: Connection timed out
[1741611729.292877] [ohm:3530576:0]        ib_iface.c:1059 UCX  ERROR ibv_create_cq(cqe=256) failed: Connection timed out
[1741611729.295676] [ohm:3530537:0]        ib_iface.c:1059 UCX  ERROR ibv_create_cq(cqe=256) failed: Connection timed out
[1741611729.304082] [ohm:3530590:0]        ib_iface.c:1059 UCX  ERROR ibv_create_cq(cqe=256) failed: Connection timed out
[1741611729.305862] [ohm:3530675:0]        ib_iface.c:1059 UCX  ERROR ibv_create_cq(cqe=256) failed: Connection timed out
[1741611729.306241] [ohm:3530669:0]        ib_iface.c:1059 UCX  ERROR ibv_create_cq(cqe=256) failed: Connection timed out
[1741611729.307597] [ohm:3530558:0]        ib_iface.c:1059 UCX  ERROR ibv_create_cq(cqe=256) failed: Connection timed out
[1741611729.307597] [ohm:3530562:0]        ib_iface.c:1059 UCX  ERROR ibv_create_cq(cqe=256) failed: Connection timed out
[1741611729.318863] [ohm:3530672:0]        ib_iface.c:1059 UCX  ERROR ibv_create_cq(cqe=256) failed: Connection timed out
[1741611729.319635] [ohm:3530662:0]        ib_iface.c:1059 UCX  ERROR ibv_create_cq(cqe=256) failed: Connection timed out
[1741611729.333302] [ohm:3530582:0]        ib_iface.c:1059 UCX  ERROR ibv_create_cq(cqe=256) failed: Connection timed out
[1741611729.333920] [ohm:3530651:0]        ib_iface.c:1059 UCX  ERROR ibv_create_cq(cqe=256) failed: Connection timed out
[1741611729.338358] [ohm:3530544:0]        ib_iface.c:1059 UCX  ERROR ibv_create_cq(cqe=256) failed: Connection timed out
[1741611729.338699] [ohm:3530625:0]        ib_iface.c:1059 UCX  ERROR ibv_create_cq(cqe=256) failed: Connection timed out
[1741611729.339315] [ohm:3530589:0]        ib_iface.c:1059 UCX  ERROR ibv_create_cq(cqe=256) failed: Connection timed out
[1741611729.341588] [ohm:3530624:0]        ib_iface.c:1059 UCX  ERROR ibv_create_cq(cqe=256) failed: Connection timed out
[1741611729.344785] [ohm:3530592:0]        ib_iface.c:1059 UCX  ERROR ibv_create_cq(cqe=256) failed: Connection timed out
[1741611729.347633] [ohm:3530591:0]        ib_iface.c:1059 UCX  ERROR ibv_create_cq(cqe=256) failed: Connection timed out
[1741611729.348742] [ohm:3530585:0]        ib_iface.c:1059 UCX  ERROR ibv_create_cq(cqe=256) failed: Connection timed out
[1741611729.348892] [ohm:3530656:0]        ib_iface.c:1059 UCX  ERROR ibv_create_cq(cqe=256) failed: Connection timed out
[1741611729.350264] [ohm:3530603:0]        ib_iface.c:1059 UCX  ERROR ibv_create_cq(cqe=256) failed: Connection timed out
[1741611729.351842] [ohm:3530629:0]        ib_iface.c:1059 UCX  ERROR ibv_create_cq(cqe=256) failed: Connection timed out
[1741611729.353182] [ohm:3530578:0]        ib_iface.c:1059 UCX  ERROR ibv_create_cq(cqe=256) failed: Connection timed out
[1741611729.354935] [ohm:3530636:0]        ib_iface.c:1059 UCX  ERROR ibv_create_cq(cqe=256) failed: Connection timed out
[1741611729.355314] [ohm:3530595:0]        ib_iface.c:1059 UCX  ERROR ibv_create_cq(cqe=256) failed: Connection timed out
[1741611729.358222] [ohm:3530594:0]        ib_iface.c:1059 UCX  ERROR ibv_create_cq(cqe=256) failed: Connection timed out
[1741611729.359663] [ohm:3530561:0]        ib_iface.c:1059 UCX  ERROR ibv_create_cq(cqe=256) failed: Connection timed out
[1741611729.359936] [ohm:3530646:0]        ib_iface.c:1059 UCX  ERROR ibv_create_cq(cqe=256) failed: Connection timed out


           ************************************************************
           *        Program running with 64 parallel MPI-processes    *
           *              working on a common directory               *
           ************************************************************
------------------------------------------------------------------------------
                             ORCA STARTUP CALCULATIONS
                           -- RI-GTO INTEGRALS CHOSEN --
------------------------------------------------------------------------------
------------------------------------------------------------------------------
                   ___                                                        
                  /   \      - P O W E R E D   B Y -                         
                 /     \                                                     
                 |  |  |   _    _      __       _____    __    __             
                 |  |  |  | |  | |    /  \     |  _  \  |  |  /  |          
                  \  \/   | |  | |   /    \    | | | |  |  | /  /          
                 / \  \   | |__| |  /  /\  \   | |_| |  |  |/  /          
                |  |  |   |  __  | /  /__\  \  |    /   |      \           
                |  |  |   | |  | | |   __   |  |    \   |  |\   \          
                \     /   | |  | | |  |  |  |  | |\  \  |  | \   \       
                 \___/    |_|  |_| |__|  |__|  |_| \__\ |__|  \__/        
                                                                              
                      - O R C A' S   B I G   F R I E N D -                    
                                      &                                       
                       - I N T E G R A L  F E E D E R -                       
                                                                              
 v1 FN, 2020, v2 2021, v3 2022-2024                                           
------------------------------------------------------------------------------


----------------------
SHARK INTEGRAL PACKAGE
----------------------

Number of atoms                             ...      7
Number of basis functions                   ...    182
Number of shells                            ...     68
Maximum angular momentum                    ...      3
Integral batch strategy                     ... SHARK/LIBINT Hybrid
RI-J (if used) integral strategy            ... SPLIT-RIJ (Revised 2003 algorithm where possible)
Printlevel                                  ...      1
Contraction scheme used                     ... SEGMENTED contraction
Prescreening option                         ... SCHWARTZ
   Thresh                                   ... 2.500e-11
   Tcut                                     ... 2.500e-12
   Tpresel                                  ... 2.500e-12 
Coulomb Range Separation                    ... NOT USED
Exchange Range Separation                   ... Long Range
   Mu parameter                             ... 3.000e-01
   Scaling (regular/separated)              ... 1.500e-01 8.500e-01
Multipole approximations                    ... NOT USED
Finite Nucleus Model                        ... NOT USED
CABS basis                                  ... NOT available
Auxiliary Coulomb fitting basis             ... AVAILABLE
   # of basis functions in Aux-J            ...    191
   # of shells in Aux-J                     ...     65
   Maximum angular momentum in Aux-J        ...      4
Auxiliary J/K fitting basis                 ... NOT available
Auxiliary Correlation fitting basis         ... NOT available
Auxiliary 'external' fitting basis          ... NOT available

Checking pre-screening integrals            ... done (  0.0 sec) Dimension = 68
Check shell pair data                       ... done (  0.0 sec)
Shell pair information
Shell pair cut-off parameter TPreSel        ...   2.5e-12
Total number of shell pairs                 ...      2346
Shell pairs after pre-screening             ...      2325
Total number of primitive shell pairs       ...      5434
Primitive shell pairs kept                  ...      4806
          la=0 lb=0:    455 shell pairs
          la=1 lb=0:    655 shell pairs
          la=1 lb=1:    252 shell pairs
          la=2 lb=0:    386 shell pairs
          la=2 lb=1:    285 shell pairs
          la=2 lb=2:     91 shell pairs
          la=3 lb=0:     90 shell pairs
          la=3 lb=1:     66 shell pairs
          la=3 lb=2:     39 shell pairs
          la=3 lb=3:      6 shell pairs

Calculating one electron integrals          ... done (  0.0 sec)
Calculating RI/J V-Matrix + Cholesky decomp.... done (  0.0 sec)
Calculating Nuclear repulsion               ... done (  0.0 sec) ENN=     67.311140976272 Eh

Diagonalization of the overlap matrix:
Smallest eigenvalue                        ... 1.600e-05
Time for diagonalization                   ...    0.004 sec
Threshold for overlap eigenvalues          ... 1.000e-07
Number of eigenvalues below threshold      ... 0
Time for construction of square roots      ...    0.004 sec
Total time needed                          ...    0.010 sec

-------------------
DFT GRID GENERATION
-------------------

General Integration Accuracy     IntAcc      ... 4.388
Radial Grid Type                 RadialGrid  ... OptM3 with GC (2021)
Angular Grid (max. ang.)         AngularGrid ... 4 (Lebedev-302)
Angular grid pruning method      GridPruning ... 4 (adaptive)
Weight generation scheme         WeightScheme... mBecke (2022)
Basis function cutoff            BFCut       ... 1.0000e-11
Integration weight cutoff        WCut        ... 1.0000e-14
Partially contracted basis set               ... off
Rotationally invariant grid construction     ... off
Angular grids for H and He will be reduced by one unit
Diffuse basis detected: some atoms will have their outermost
                        angular grid increased by 1.

Total number of grid points                  ...    33134
Total number of batches                      ...      521
Average number of points per batch           ...       63
Average number of grid points per atom       ...     4733

--------------------
COSX GRID GENERATION
--------------------

GRIDX 1
-------
General Integration Accuracy     IntAcc      ... 3.816
Radial Grid Type                 RadialGrid  ... OptM3 with GC (2021)
Angular Grid (max. ang.)         AngularGrid ... 1 (Lebedev-50)
Angular grid pruning method      GridPruning ... 4 (adaptive)
Weight generation scheme         WeightScheme... mBecke (2022)
Basis function cutoff            BFCut       ... 1.0000e-11
Integration weight cutoff        WCut        ... 1.0000e-14
Partially contracted basis set               ... on
Rotationally invariant grid construction     ... off
Angular grids for H and He will be reduced by one unit
Diffuse basis detected: some atoms will have their outermost
                        angular grid increased by 1.

Total number of grid points                  ...     4161
Total number of batches                      ...       37
Average number of points per batch           ...      112
Average number of grid points per atom       ...      594
UseSFitting                                  ... on

GRIDX 2
-------
General Integration Accuracy     IntAcc      ... 4.020
Radial Grid Type                 RadialGrid  ... OptM3 with GC (2021)
Angular Grid (max. ang.)         AngularGrid ... 2 (Lebedev-110)
Angular grid pruning method      GridPruning ... 4 (adaptive)
Weight generation scheme         WeightScheme... mBecke (2022)
Basis function cutoff            BFCut       ... 1.0000e-11
Integration weight cutoff        WCut        ... 1.0000e-14
Partially contracted basis set               ... on
Rotationally invariant grid construction     ... off
Angular grids for H and He will be reduced by one unit
Diffuse basis detected: some atoms will have their outermost
                        angular grid increased by 1.

Total number of grid points                  ...    10262
Total number of batches                      ...       83
Average number of points per batch           ...      123
Average number of grid points per atom       ...     1466
UseSFitting                                  ... on

GRIDX 3
-------
General Integration Accuracy     IntAcc      ... 4.338
Radial Grid Type                 RadialGrid  ... OptM3 with GC (2021)
Angular Grid (max. ang.)         AngularGrid ... 3 (Lebedev-194)
Angular grid pruning method      GridPruning ... 4 (adaptive)
Weight generation scheme         WeightScheme... mBecke (2022)
Basis function cutoff            BFCut       ... 1.0000e-11
Integration weight cutoff        WCut        ... 1.0000e-14
Partially contracted basis set               ... on
Rotationally invariant grid construction     ... off
Angular grids for H and He will be reduced by one unit
Diffuse basis detected: some atoms will have their outermost
                        angular grid increased by 1.

Total number of grid points                  ...    23099
Total number of batches                      ...      184
Average number of points per batch           ...      125
Average number of grid points per atom       ...     3300
UseSFitting                                  ... on
Initializing property integral containers    ... done (  0.0 sec)

SHARK setup successfully completed in   0.4 seconds

Maximum memory used throughout the entire STARTUP-calculation: 13.8 MB
[1741611731.405774] [ohm:3530875:0]        ib_iface.c:1059 UCX  ERROR ibv_create_cq(cqe=256) failed: Connection timed out
[1741611731.408237] [ohm:3530866:0]        ib_iface.c:1059 UCX  ERROR ibv_create_cq(cqe=256) failed: Connection timed out
[1741611731.421958] [ohm:3530879:0]        ib_iface.c:1059 UCX  ERROR ibv_create_cq(cqe=256) failed: Connection timed out
[1741611731.430870] [ohm:3530872:0]        ib_iface.c:1059 UCX  ERROR ibv_create_cq(cqe=256) failed: Connection timed out
[1741611731.439322] [ohm:3530871:0]        ib_iface.c:1059 UCX  ERROR ibv_create_cq(cqe=256) failed: Connection timed out
[1741611731.446081] [ohm:3530870:0]        ib_iface.c:1059 UCX  ERROR ibv_create_cq(cqe=256) failed: Connection timed out
[1741611731.452422] [ohm:3530876:0]        ib_iface.c:1059 UCX  ERROR ibv_create_cq(cqe=256) failed: Connection timed out
[1741611731.460348] [ohm:3530863:0]        ib_iface.c:1059 UCX  ERROR ibv_create_cq(cqe=256) failed: Connection timed out
[1741611731.460381] [ohm:3530878:0]        ib_iface.c:1059 UCX  ERROR ibv_create_cq(cqe=256) failed: Connection timed out
[1741611731.464061] [ohm:3530877:0]        ib_iface.c:1059 UCX  ERROR ibv_create_cq(cqe=256) failed: Connection timed out
[1741611731.464849] [ohm:3530868:0]        ib_iface.c:1059 UCX  ERROR ibv_create_cq(cqe=256) failed: Connection timed out
[1741611731.464934] [ohm:3530874:0]        ib_iface.c:1059 UCX  ERROR ibv_create_cq(cqe=256) failed: Connection timed out
[1741611731.466312] [ohm:3530864:0]        ib_iface.c:1059 UCX  ERROR ibv_create_cq(cqe=256) failed: Connection timed out
[1741611731.466697] [ohm:3530865:0]        ib_iface.c:1059 UCX  ERROR ibv_create_cq(cqe=256) failed: Connection timed out
[1741611731.503195] [ohm:3530869:0]        ib_iface.c:1059 UCX  ERROR ibv_create_cq(cqe=256) failed: Connection timed out
[1741611731.525434] [ohm:3530897:0]        ib_iface.c:1059 UCX  ERROR ibv_create_cq(cqe=256) failed: Connection timed out
[1741611731.525567] [ohm:3530887:0]        ib_iface.c:1059 UCX  ERROR ibv_create_cq(cqe=256) failed: Connection timed out
[1741611731.530749] [ohm:3530882:0]        ib_iface.c:1059 UCX  ERROR ibv_create_cq(cqe=256) failed: Connection timed out
[1741611731.537415] [ohm:3530997:0]        ib_iface.c:1059 UCX  ERROR ibv_create_cq(cqe=256) failed: Connection timed out
[1741611731.552804] [ohm:3530891:0]        ib_iface.c:1059 UCX  ERROR ibv_create_cq(cqe=256) failed: Connection timed out
[1741611731.555750] [ohm:3530935:0]        ib_iface.c:1059 UCX  ERROR ibv_create_cq(cqe=256) failed: Connection timed out
[1741611731.568266] [ohm:3530905:0]        ib_iface.c:1059 UCX  ERROR ibv_create_cq(cqe=256) failed: Connection timed out
[1741611731.568838] [ohm:3530904:0]        ib_iface.c:1059 UCX  ERROR ibv_create_cq(cqe=256) failed: Connection timed out
[1741611731.569657] [ohm:3530915:0]        ib_iface.c:1059 UCX  ERROR ibv_create_cq(cqe=256) failed: Connection timed out
[1741611731.573124] [ohm:3530899:0]        ib_iface.c:1059 UCX  ERROR ibv_create_cq(cqe=256) failed: Connection timed out
[1741611731.583345] [ohm:3530974:0]        ib_iface.c:1059 UCX  ERROR ibv_create_cq(cqe=256) failed: Connection timed out
[1741611731.604709] [ohm:3530999:0]        ib_iface.c:1059 UCX  ERROR ibv_create_cq(cqe=256) failed: Connection timed out
[1741611731.605143] [ohm:3530873:0]        ib_iface.c:1059 UCX  ERROR ibv_create_cq(cqe=256) failed: Connection timed out
[1741611731.612568] [ohm:3530989:0]        ib_iface.c:1059 UCX  ERROR ibv_create_cq(cqe=256) failed: Connection timed out
[1741611731.613014] [ohm:3530900:0]        ib_iface.c:1059 UCX  ERROR ibv_create_cq(cqe=256) failed: Connection timed out
[1741611731.613888] [ohm:3530953:0]        ib_iface.c:1059 UCX  ERROR ibv_create_cq(cqe=256) failed: Connection timed out
[1741611731.618391] [ohm:3531009:0]        ib_iface.c:1059 UCX  ERROR ibv_create_cq(cqe=256) failed: Connection timed out
[1741611731.622090] [ohm:3530983:0]        ib_iface.c:1059 UCX  ERROR ibv_create_cq(cqe=256) failed: Connection timed out
[1741611731.624977] [ohm:3530903:0]        ib_iface.c:1059 UCX  ERROR ibv_create_cq(cqe=256) failed: Connection timed out
[1741611731.631313] [ohm:3530925:0]        ib_iface.c:1059 UCX  ERROR ibv_create_cq(cqe=256) failed: Connection timed out
[1741611731.636237] [ohm:3530917:0]        ib_iface.c:1059 UCX  ERROR ibv_create_cq(cqe=256) failed: Connection timed out
[1741611731.636895] [ohm:3530957:0]        ib_iface.c:1059 UCX  ERROR ibv_create_cq(cqe=256) failed: Connection timed out
[1741611731.644393] [ohm:3530902:0]        ib_iface.c:1059 UCX  ERROR ibv_create_cq(cqe=256) failed: Connection timed out
[1741611731.645496] [ohm:3530980:0]        ib_iface.c:1059 UCX  ERROR ibv_create_cq(cqe=256) failed: Connection timed out
[1741611731.652794] [ohm:3530960:0]        ib_iface.c:1059 UCX  ERROR ibv_create_cq(cqe=256) failed: Connection timed out
[1741611731.655181] [ohm:3530951:0]        ib_iface.c:1059 UCX  ERROR ibv_create_cq(cqe=256) failed: Connection timed out
[1741611731.666106] [ohm:3530884:0]        ib_iface.c:1059 UCX  ERROR ibv_create_cq(cqe=256) failed: Connection timed out
[1741611731.667968] [ohm:3530931:0]        ib_iface.c:1059 UCX  ERROR ibv_create_cq(cqe=256) failed: Connection timed out
[1741611731.668646] [ohm:3530906:0]        ib_iface.c:1059 UCX  ERROR ibv_create_cq(cqe=256) failed: Connection timed out
[1741611731.671279] [ohm:3530901:0]        ib_iface.c:1059 UCX  ERROR ibv_create_cq(cqe=256) failed: Connection timed out
[1741611731.675322] [ohm:3530898:0]        ib_iface.c:1059 UCX  ERROR ibv_create_cq(cqe=256) failed: Connection timed out
[1741611731.678813] [ohm:3530945:0]        ib_iface.c:1059 UCX  ERROR ibv_create_cq(cqe=256) failed: Connection timed out
[1741611731.678821] [ohm:3530970:0]        ib_iface.c:1059 UCX  ERROR ibv_create_cq(cqe=256) failed: Connection timed out
[1741611731.679374] [ohm:3530940:0]        ib_iface.c:1059 UCX  ERROR ibv_create_cq(cqe=256) failed: Connection timed out
[1741611731.688981] [ohm:3530910:0]        ib_iface.c:1059 UCX  ERROR ibv_create_cq(cqe=256) failed: Connection timed out
[1741611731.693752] [ohm:3530968:0]        ib_iface.c:1059 UCX  ERROR ibv_create_cq(cqe=256) failed: Connection timed out
[1741611731.694407] [ohm:3531010:0]        ib_iface.c:1059 UCX  ERROR ibv_create_cq(cqe=256) failed: Connection timed out
[1741611731.696849] [ohm:3530907:0]        ib_iface.c:1059 UCX  ERROR ibv_create_cq(cqe=256) failed: Connection timed out
[1741611731.703552] [ohm:3530896:0]        ib_iface.c:1059 UCX  ERROR ibv_create_cq(cqe=256) failed: Connection timed out
[1741611731.705091] [ohm:3530894:0]        ib_iface.c:1059 UCX  ERROR ibv_create_cq(cqe=256) failed: Connection timed out
[1741611731.705863] [ohm:3530965:0]        ib_iface.c:1059 UCX  ERROR ibv_create_cq(cqe=256) failed: Connection timed out
[1741611731.707287] [ohm:3530962:0]        ib_iface.c:1059 UCX  ERROR ibv_create_cq(cqe=256) failed: Connection timed out
[1741611731.708411] [ohm:3530993:0]        ib_iface.c:1059 UCX  ERROR ibv_create_cq(cqe=256) failed: Connection timed out
[1741611731.709297] [ohm:3530867:0]        ib_iface.c:1059 UCX  ERROR ibv_create_cq(cqe=256) failed: Connection timed out
[1741611731.711740] [ohm:3531004:0]        ib_iface.c:1059 UCX  ERROR ibv_create_cq(cqe=256) failed: Connection timed out
[1741611731.712389] [ohm:3530947:0]        ib_iface.c:1059 UCX  ERROR ibv_create_cq(cqe=256) failed: Connection timed out
[1741611731.713561] [ohm:3530987:0]        ib_iface.c:1059 UCX  ERROR ibv_create_cq(cqe=256) failed: Connection timed out
[1741611731.714104] [ohm:3530978:0]        ib_iface.c:1059 UCX  ERROR ibv_create_cq(cqe=256) failed: Connection timed out
[1741611731.714737] [ohm:3530892:0]        ib_iface.c:1059 UCX  ERROR ibv_create_cq(cqe=256) failed: Connection timed out


           ************************************************************
           *        Program running with 64 parallel MPI-processes    *
           *              working on a common directory               *
           ************************************************************
-------------------------------------------------------------------------------
                                 ORCA GUESS
                   Start orbitals & Density for SCF / CASSCF
-------------------------------------------------------------------------------

------------
SCF SETTINGS
------------
Hamiltonian:
 Density Functional     Method          .... DFT(GTOs)
  Functional kind                       .... Exchange-Correlation
  Functional name                       .... wB97M-V exchange-correlation functional
  Functional family                     .... Hybrid MGGA
  Functional refs                              
    [ 0] N. Mardirossian and M. Head-Gordon.,  J. Chem. Phys. 144, 214110 (2016), doi: 10.1063/1.4952647
  Fraction of HF Exchange (short range) .... 0.1500
  Fraction of HF Exchange (long range)  .... 1.0000
  Range separation parameter mu         .... 0.3000
  Functional external parameters        .... 17
    Parameter  0 _cx00      =  8.500000e-01 : u^00 coefficient for exchange
    Parameter  1 _cx01      =  1.007000e+00 : u^01 coefficient for exchange
    Parameter  2 _cx10      =  2.590000e-01 : u^10 coefficient for exchange
    Parameter  3 _css00     =  4.430000e-01 : u^00 coefficient for same-spin correlation
    Parameter  4 _css04     = -1.437000e+00 : u^04 coefficient for same-spin correlation
    Parameter  5 _css10     = -4.535000e+00 : u^10 coefficient for same-spin correlation
    Parameter  6 _css20     = -3.390000e+00 : u^20 coefficient for same-spin correlation
    Parameter  7 _css43     =  4.278000e+00 : u^43 coefficient for same-spin correlation
    Parameter  8 _cos00     =  1.000000e+00 : u^00 coefficient for opposite-spin correlation
    Parameter  9 _cos10     =  1.358000e+00 : u^10 coefficient for opposite-spin correlation
    Parameter 10 _cos20     =  2.924000e+00 : u^20 coefficient for opposite-spin correlation
    Parameter 11 _cos21     = -8.812000e+00 : u^21 coefficient for opposite-spin correlation
    Parameter 12 _cos60     = -1.390000e+00 : u^60 coefficient for opposite-spin correlation
    Parameter 13 _cos61     =  9.142000e+00 : u^61 coefficient for opposite-spin correlation
    Parameter 14 _alpha     =  1.000000e+00 : fraction of HF exchange
    Parameter 15 _beta      = -8.500000e-01 : fraction of short-range exchange
    Parameter 16 _omega     =  3.000000e-01 : range-separation constant
 Long-range corrected/Screened/Range-Separated Hybrid DFT is turned on
   Amount of maximum screened exact exchange              ....  0.850000
   Range separation parameter mu (erf(mu*r12)/r12)        ....  0.300000
 RI-approximation to the Coulomb term is turned on
   Number of AuxJ basis functions       .... 191
   RIJ-COSX (HFX calculated with COS-X)).... on


General Settings:
 Integral files         IntName         .... orca
 Hartree-Fock type      HFTyp           .... UHF
 Total Charge           Charge          ....    0
 Multiplicity           Mult            ....    3
 Number of Electrons    NEL             ....   24
 Basis Dimension        Dim             ....  182
 Nuclear Repulsion      ENuc            ....     67.3111409763 Eh

Convergence Acceleration:
 AO-DIIS                CNVDIIS         .... on
   Start iteration      DIISMaxIt       ....    12
   Startup error        DIISStart       ....  0.200000
   # of expansion vecs  DIISMaxEq       ....     5
   Bias factor          DIISBfac        ....   1.050
   Max. coefficient     DIISMaxC        ....  10.000
 MO-DIIS                CNVKDIIS        .... off
 Trust-Rad. Augm. Hess. CNVTRAH         .... auto
   Auto Start mean grad. ratio tolernc. ....  1.125000
   Auto Start start iteration           ....    50
   Auto Start num. interpolation iter.  ....    10
   Max. Number of Micro iterations      ....    24
   Max. Number of Macro iterations      .... Maxiter - #DIIS iter
   Number of Davidson start vectors     ....     2
   Converg. threshold    (grad. norm)   ....   1.000e-05
   Grad. Scal. Fac. for Micro threshold ....   0.100
   Minimum threshold for Micro iter.    ....   1.000e-02
   NR start threshold (gradient norm)   ....   1.000e-04
   Initial trust radius                 ....   0.400
   Minimum AH scaling param. (alpha)    ....   1.000
   Maximum AH scaling param. (alpha)    .... 1000.000
   Quad. conv. algorithm                .... NR
   White noise on init. David. guess    .... on
   Maximum white noise                  ....   0.010
   Pseudo random numbers                .... off
   Inactive MOs                         .... canonical
   Orbital update algorithm             .... Taylor
   Preconditioner                       .... Diag
   Full preconditioner red. dimension   ....   250
 SOSCF                  CNVSOSCF        .... on
   Start iteration      SOSCFMaxIt      ....   150
   Startup grad/error   SOSCFStart      ....  0.003300
   Hessian update       SOSCFHessUp     .... L-BFGS
 Level Shifting         CNVShift        .... on
   Level shift para.    LevelShift      ....    0.2500
   Turn off err/grad.   ShiftErr        ....    0.0010
 Zerner damping         CNVZerner       .... off
 Static damping         CNVDamp         .... on
   Fraction old density DampFac         ....    0.7000
   Max. Damping (<1)    DampMax         ....    0.9800
   Min. Damping (>=0)   DampMin         ....    0.0000
   Turn off err/grad.   DampErr         ....    0.1000

SCF Procedure:
 Maximum # iterations   MaxIter         ....   125
 SCF integral mode      SCFMode         .... Direct
   Integral package                     .... SHARK and LIBINT hybrid scheme
 Reset frequency        DirectResetFreq ....    20
 Integral Threshold     Thresh          ....  2.500e-11 Eh
 Primitive CutOff       TCut            ....  2.500e-12 Eh

Convergence Tolerance:
 Convergence Check Mode ConvCheckMode   .... Total+1el-Energy
 Convergence forced     ConvForced      .... 1
 Energy Change          TolE            ....  1.000e-08 Eh
 1-El. energy change                    ....  1.000e-05 Eh
 Orbital Gradient       TolG            ....  1.000e-05
 Orbital Rotation angle TolX            ....  1.000e-05
 DIIS Error             TolErr          ....  5.000e-07

------------------------------
INITIAL GUESS: MODEL POTENTIAL
------------------------------
Loading Hartree-Fock densities                     ... done
Calculating cut-offs                               ... done
Initializing the effective Hamiltonian             ... done
Setting up the integral package (SHARK)            ... done
Starting the Coulomb interaction                   ... done (   0.0 sec)
Making the grid                                    ... done (   0.0 sec)
Mapping shells                                     ... done
Starting the XC term evaluation                    ... done (   0.0 sec)
  promolecular density results
     # of electrons  =     23.998227432
     EX              =    -19.452031569
     EC              =     -0.763826717
     EX+EC           =    -20.215858286
Transforming the Hamiltonian                       ... done (   0.0 sec)
Diagonalizing the Hamiltonian                      ... done (   0.0 sec)
Back transforming the eigenvectors                 ... done (   0.0 sec)
Now organizing SCF variables                       ... done
                      ------------------
                      INITIAL GUESS DONE (   0.1 sec)
                      ------------------
             **** ENERGY FILE WAS UPDATED (orca.en.tmp) ****
Finished Guess after   1.7 sec
Maximum memory used throughout the entire GUESS-calculation: 9.5 MB
[1741611733.448021] [ohm:3531206:0]        ib_iface.c:1059 UCX  ERROR ibv_create_cq(cqe=256) failed: Connection timed out
[1741611733.454229] [ohm:3531207:0]        ib_iface.c:1059 UCX  ERROR ibv_create_cq(cqe=256) failed: Connection timed out
[1741611733.520559] [ohm:3531220:0]        ib_iface.c:1059 UCX  ERROR ibv_create_cq(cqe=256) failed: Connection timed out
[1741611733.525576] [ohm:3531208:0]        ib_iface.c:1059 UCX  ERROR ibv_create_cq(cqe=256) failed: Connection timed out
[1741611733.529591] [ohm:3531214:0]        ib_iface.c:1059 UCX  ERROR ibv_create_cq(cqe=256) failed: Connection timed out
[1741611733.540438] [ohm:3531241:0]        ib_iface.c:1059 UCX  ERROR ibv_create_cq(cqe=256) failed: Connection timed out
[1741611733.541456] [ohm:3531212:0]        ib_iface.c:1059 UCX  ERROR ibv_create_cq(cqe=256) failed: Connection timed out
[1741611733.542771] [ohm:3531219:0]        ib_iface.c:1059 UCX  ERROR ibv_create_cq(cqe=256) failed: Connection timed out
[1741611733.543461] [ohm:3531210:0]        ib_iface.c:1059 UCX  ERROR ibv_create_cq(cqe=256) failed: Connection timed out
[1741611733.598105] [ohm:3531218:0]        ib_iface.c:1059 UCX  ERROR ibv_create_cq(cqe=256) failed: Connection timed out
[1741611733.619890] [ohm:3531262:0]        ib_iface.c:1059 UCX  ERROR ibv_create_cq(cqe=256) failed: Connection timed out
[1741611733.634033] [ohm:3531266:0]        ib_iface.c:1059 UCX  ERROR ibv_create_cq(cqe=256) failed: Connection timed out
[1741611733.653774] [ohm:3531257:0]        ib_iface.c:1059 UCX  ERROR ibv_create_cq(cqe=256) failed: Connection timed out
[1741611733.655258] [ohm:3531276:0]        ib_iface.c:1059 UCX  ERROR ibv_create_cq(cqe=256) failed: Connection timed out
[1741611733.655852] [ohm:3531265:0]        ib_iface.c:1059 UCX  ERROR ibv_create_cq(cqe=256) failed: Connection timed out
[1741611733.656141] [ohm:3531211:0]        ib_iface.c:1059 UCX  ERROR ibv_create_cq(cqe=256) failed: Connection timed out
[1741611733.658178] [ohm:3531255:0]        ib_iface.c:1059 UCX  ERROR ibv_create_cq(cqe=256) failed: Connection timed out
[1741611733.659511] [ohm:3531213:0]        ib_iface.c:1059 UCX  ERROR ibv_create_cq(cqe=256) failed: Connection timed out
[1741611733.662557] [ohm:3531261:0]        ib_iface.c:1059 UCX  ERROR ibv_create_cq(cqe=256) failed: Connection timed out
[1741611733.673083] [ohm:3531267:0]        ib_iface.c:1059 UCX  ERROR ibv_create_cq(cqe=256) failed: Connection timed out
[1741611733.674106] [ohm:3531240:0]        ib_iface.c:1059 UCX  ERROR ibv_create_cq(cqe=256) failed: Connection timed out
[1741611733.678893] [ohm:3531312:0]        ib_iface.c:1059 UCX  ERROR ibv_create_cq(cqe=256) failed: Connection timed out
[1741611733.695504] [ohm:3531260:0]        ib_iface.c:1059 UCX  ERROR ibv_create_cq(cqe=256) failed: Connection timed out
[1741611733.695986] [ohm:3531269:0]        ib_iface.c:1059 UCX  ERROR ibv_create_cq(cqe=256) failed: Connection timed out
[1741611733.699180] [ohm:3531307:0]        ib_iface.c:1059 UCX  ERROR ibv_create_cq(cqe=256) failed: Connection timed out
[1741611733.700882] [ohm:3531335:0]        ib_iface.c:1059 UCX  ERROR ibv_create_cq(cqe=256) failed: Connection timed out
[1741611733.700945] [ohm:3531209:0]        ib_iface.c:1059 UCX  ERROR ibv_create_cq(cqe=256) failed: Connection timed out
[1741611733.703517] [ohm:3531258:0]        ib_iface.c:1059 UCX  ERROR ibv_create_cq(cqe=256) failed: Connection timed out
[1741611733.707430] [ohm:3531259:0]        ib_iface.c:1059 UCX  ERROR ibv_create_cq(cqe=256) failed: Connection timed out
[1741611733.713320] [ohm:3531274:0]        ib_iface.c:1059 UCX  ERROR ibv_create_cq(cqe=256) failed: Connection timed out
[1741611733.720093] [ohm:3531263:0]        ib_iface.c:1059 UCX  ERROR ibv_create_cq(cqe=256) failed: Connection timed out
[1741611733.721482] [ohm:3531246:0]        ib_iface.c:1059 UCX  ERROR ibv_create_cq(cqe=256) failed: Connection timed out
[1741611733.741746] [ohm:3531273:0]        ib_iface.c:1059 UCX  ERROR ibv_create_cq(cqe=256) failed: Connection timed out
[1741611733.744371] [ohm:3531215:0]        ib_iface.c:1059 UCX  ERROR ibv_create_cq(cqe=256) failed: Connection timed out
[1741611733.758072] [ohm:3531217:0]        ib_iface.c:1059 UCX  ERROR ibv_create_cq(cqe=256) failed: Connection timed out
[1741611733.763809] [ohm:3531303:0]        ib_iface.c:1059 UCX  ERROR ibv_create_cq(cqe=256) failed: Connection timed out
[1741611733.771631] [ohm:3531349:0]        ib_iface.c:1059 UCX  ERROR ibv_create_cq(cqe=256) failed: Connection timed out
[1741611733.774861] [ohm:3531357:0]        ib_iface.c:1059 UCX  ERROR ibv_create_cq(cqe=256) failed: Connection timed out
[1741611733.777994] [ohm:3531317:0]        ib_iface.c:1059 UCX  ERROR ibv_create_cq(cqe=256) failed: Connection timed out
[1741611733.779521] [ohm:3531326:0]        ib_iface.c:1059 UCX  ERROR ibv_create_cq(cqe=256) failed: Connection timed out
[1741611733.788075] [ohm:3531339:0]        ib_iface.c:1059 UCX  ERROR ibv_create_cq(cqe=256) failed: Connection timed out
[1741611733.789405] [ohm:3531354:0]        ib_iface.c:1059 UCX  ERROR ibv_create_cq(cqe=256) failed: Connection timed out
[1741611733.794586] [ohm:3531270:0]        ib_iface.c:1059 UCX  ERROR ibv_create_cq(cqe=256) failed: Connection timed out
[1741611733.800201] [ohm:3531332:0]        ib_iface.c:1059 UCX  ERROR ibv_create_cq(cqe=256) failed: Connection timed out
[1741611733.802630] [ohm:3531284:0]        ib_iface.c:1059 UCX  ERROR ibv_create_cq(cqe=256) failed: Connection timed out
[1741611733.808082] [ohm:3531293:0]        ib_iface.c:1059 UCX  ERROR ibv_create_cq(cqe=256) failed: Connection timed out
[1741611733.810172] [ohm:3531275:0]        ib_iface.c:1059 UCX  ERROR ibv_create_cq(cqe=256) failed: Connection timed out
[1741611733.816910] [ohm:3531216:0]        ib_iface.c:1059 UCX  ERROR ibv_create_cq(cqe=256) failed: Connection timed out
[1741611733.820499] [ohm:3531272:0]        ib_iface.c:1059 UCX  ERROR ibv_create_cq(cqe=256) failed: Connection timed out
[1741611733.821851] [ohm:3531268:0]        ib_iface.c:1059 UCX  ERROR ibv_create_cq(cqe=256) failed: Connection timed out
[1741611733.821926] [ohm:3531334:0]        ib_iface.c:1059 UCX  ERROR ibv_create_cq(cqe=256) failed: Connection timed out
[1741611733.824635] [ohm:3531283:0]        ib_iface.c:1059 UCX  ERROR ibv_create_cq(cqe=256) failed: Connection timed out
[1741611733.827902] [ohm:3531271:0]        ib_iface.c:1059 UCX  ERROR ibv_create_cq(cqe=256) failed: Connection timed out
[1741611733.831405] [ohm:3531264:0]        ib_iface.c:1059 UCX  ERROR ibv_create_cq(cqe=256) failed: Connection timed out
[1741611733.832808] [ohm:3531321:0]        ib_iface.c:1059 UCX  ERROR ibv_create_cq(cqe=256) failed: Connection timed out
[1741611733.832842] [ohm:3531330:0]        ib_iface.c:1059 UCX  ERROR ibv_create_cq(cqe=256) failed: Connection timed out
[1741611733.832876] [ohm:3531342:0]        ib_iface.c:1059 UCX  ERROR ibv_create_cq(cqe=256) failed: Connection timed out
[1741611733.833123] [ohm:3531297:0]        ib_iface.c:1059 UCX  ERROR ibv_create_cq(cqe=256) failed: Connection timed out
[1741611733.833475] [ohm:3531308:0]        ib_iface.c:1059 UCX  ERROR ibv_create_cq(cqe=256) failed: Connection timed out
[1741611733.835910] [ohm:3531278:0]        ib_iface.c:1059 UCX  ERROR ibv_create_cq(cqe=256) failed: Connection timed out
[1741611733.835974] [ohm:3531252:0]        ib_iface.c:1059 UCX  ERROR ibv_create_cq(cqe=256) failed: Connection timed out
[1741611733.836945] [ohm:3531289:0]        ib_iface.c:1059 UCX  ERROR ibv_create_cq(cqe=256) failed: Connection timed out
[1741611733.836997] [ohm:3531245:0]        ib_iface.c:1059 UCX  ERROR ibv_create_cq(cqe=256) failed: Connection timed out
[1741611733.837049] [ohm:3531277:0]        ib_iface.c:1059 UCX  ERROR ibv_create_cq(cqe=256) failed: Connection timed out


           ************************************************************
           *        Program running with 64 parallel MPI-processes    *
           *              working on a common directory               *
           ************************************************************

-------------------------------------------------------------------------------------------
                                      ORCA LEAN-SCF
                              memory conserving SCF solver
-------------------------------------------------------------------------------------------

----------------------------------------D-I-I-S--------------------------------------------
Iteration    Energy (Eh)           Delta-E    RMSDP     MaxDP     DIISErr   Damp  Time(sec)
-------------------------------------------------------------------------------------------
               ***  Starting incremental Fock matrix formation  ***
    1    -153.6987815306049185     0.00e+00  8.85e-04  2.24e-02  7.16e-02  0.700   0.3
    2    -153.7227964386974008    -2.40e-02  7.99e-04  2.38e-02  4.09e-02  0.700   0.3
                               ***Turning on AO-DIIS***
    3    -153.7364006287908182    -1.36e-02  6.48e-04  2.02e-02  2.76e-02  0.700   0.3
    4    -153.7449993596718514    -8.60e-03  1.62e-03  5.08e-02  2.28e-02  0.000   0.3
    5    -153.7657528579307495    -2.08e-02  1.65e-04  5.80e-03  8.64e-03  0.000   0.3
    6    -153.7664073470824917    -6.54e-04  1.06e-04  2.75e-03  4.89e-03  0.000   0.3
    7    -153.7667327786669773    -3.25e-04  5.92e-05  1.50e-03  3.61e-03  0.000   0.3
                              *** Initializing SOSCF ***
---------------------------------------S-O-S-C-F--------------------------------------
Iteration    Energy (Eh)           Delta-E    RMSDP     MaxDP     MaxGrad    Time(sec)
--------------------------------------------------------------------------------------
    8    -153.7668687036109247    -1.36e-04  3.55e-05  9.09e-04  1.55e-03     0.3
               *** Restarting incremental Fock matrix formation ***
    9    -153.7669094721340173    -4.08e-05  2.53e-05  9.36e-04  1.20e-03     0.3
   10    -153.7669208014015680    -1.13e-05  3.78e-05  1.10e-03  5.71e-04     0.3
   11    -153.7669287056113774    -7.90e-06  1.43e-05  5.39e-04  4.53e-04     0.3
   12    -153.7669315629343600    -2.86e-06  3.07e-05  9.77e-04  4.40e-04     0.3
   13    -153.7669372285579072    -5.67e-06  6.68e-05  2.65e-03  4.08e-04     0.3
   14    -153.7669479414121270    -1.07e-05  9.46e-05  3.91e-03  5.41e-04     0.3
   15    -153.7669602872215933    -1.23e-05  9.24e-05  3.51e-03  5.76e-04     0.3
   16    -153.7669694187859477    -9.13e-06  4.15e-05  1.52e-03  3.85e-04     0.3
   17    -153.7669723945893168    -2.98e-06  9.62e-06  4.24e-04  1.78e-04     0.3
   18    -153.7669728461863770    -4.52e-07  4.39e-06  1.93e-04  9.17e-05     0.3
   19    -153.7669729318308498    -8.56e-08  1.93e-06  7.39e-05  4.50e-05     0.3
   20    -153.7669729537602166    -2.19e-08  1.22e-06  4.43e-05  1.38e-05     0.2
   21    -153.7669729572781989    -3.52e-09  4.83e-07  1.76e-05  4.27e-06     0.2
                 **** Energy Check signals convergence ****

               *****************************************************
               *                     SUCCESS                       *
               *           SCF CONVERGED AFTER  21 CYCLES          *
               *****************************************************

Recomputing exchange energy using gridx3       ... done (    0.182 sec)
Old exchange energy                            :     -6.192455212 Eh
New exchange energy                            :     -6.192451176 Eh
Exchange energy change after final integration :      0.000004037 Eh
Total energy after final integration           :   -153.766968921 Eh
             **** ENERGY FILE WAS UPDATED (orca.en.tmp) ****

----------------
TOTAL SCF ENERGY
----------------

Total Energy       :       -153.76696892051729 Eh           -4184.21195 eV

Components:
Nuclear Repulsion  :         67.31114097627204 Eh            1831.62926 eV
Electronic Energy  :       -221.07811393355024 Eh           -6015.84132 eV
One Electron Energy:       -341.11973087835929 Eh           -9282.33978 eV
Two Electron Energy:        120.04161694480906 Eh            3266.49846 eV

Virial components:
Potential Energy   :       -306.99562886525496 Eh           -8353.77576 eV
Kinetic Energy     :        153.22865994473767 Eh            4169.56381 eV
Virial Ratio       :          2.00351310894433

DFT components:
N(Alpha)           :       12.999984926736 electrons
N(Beta)            :       10.999980618969 electrons
N(Total)           :       23.999965545705 electrons
E(XC)              :      -14.679182353700 Eh       

---------------
SCF CONVERGENCE
---------------

  Last Energy change         ...    3.5180e-09  Tolerance :   1.0000e-08
  Last MAX-Density change    ...    1.7626e-05  Tolerance :   1.0000e-07
  Last RMS-Density change    ...    4.8284e-07  Tolerance :   5.0000e-09
  Last DIIS Error            ...    1.5514e-03  Tolerance :   5.0000e-07
  Last Orbital Gradient      ...    4.2727e-06  Tolerance :   1.0000e-05
  Last Orbital Rotation      ...    1.1237e-04  Tolerance :   1.0000e-05


----------------------
UHF SPIN CONTAMINATION
----------------------

Warning: in a DFT calculation there is little theoretical justification to 
         calculate <S**2> as in Hartree-Fock theory. We will do it anyways
         but you should keep in mind that the values have only limited relevance

Expectation value of <S**2>     :     2.008185
Ideal value S*(S+1) for S=1.0   :     2.000000
Deviation                       :     0.008185

----------------
ORBITAL ENERGIES
----------------
                 SPIN UP ORBITALS
  NO   OCC          E(Eh)            E(eV) 
   0   1.0000     -19.397736      -527.8392 
   1   1.0000     -10.415330      -283.4155 
   2   1.0000     -10.372917      -282.2614 
   3   1.0000      -1.171867       -31.8881 
   4   1.0000      -0.879424       -23.9304 
   5   1.0000      -0.739992       -20.1362 
   6   1.0000      -0.618061       -16.8183 
   7   1.0000      -0.586121       -15.9492 
   8   1.0000      -0.557793       -15.1783 
   9   1.0000      -0.499899       -13.6029 
  10   1.0000      -0.444420       -12.0933 
  11   1.0000      -0.419812       -11.4237 
  12   1.0000      -0.326895        -8.8953 
  13   0.0000       0.039818         1.0835 
  14   0.0000       0.059613         1.6222 
  15   0.0000       0.079336         2.1588 
  16   0.0000       0.086556         2.3553 
  17   0.0000       0.109871         2.9897 
  18   0.0000       0.122838         3.3426 
  19   0.0000       0.135911         3.6983 
  20   0.0000       0.142950         3.8899 
  21   0.0000       0.170297         4.6340 
  22   0.0000       0.190766         5.1910 
  23   0.0000       0.202258         5.5037 

                 SPIN DOWN ORBITALS
  NO   OCC          E(Eh)            E(eV) 
   0   1.0000     -19.373652      -527.1839 
   1   1.0000     -10.416662      -283.4518 
   2   1.0000     -10.359782      -281.9040 
   3   1.0000      -1.116779       -30.3891 
   4   1.0000      -0.848364       -23.0852 
   5   1.0000      -0.713150       -19.4058 
   6   1.0000      -0.578867       -15.7518 
   7   1.0000      -0.553574       -15.0635 
   8   1.0000      -0.535973       -14.5846 
   9   1.0000      -0.469758       -12.7828 
  10   1.0000      -0.388906       -10.5827 
  11   0.0000      -0.060627        -1.6497 
  12   0.0000      -0.004242        -0.1154 
  13   0.0000       0.039113         1.0643 
  14   0.0000       0.060304         1.6409 
  15   0.0000       0.079537         2.1643 
  16   0.0000       0.088382         2.4050 
  17   0.0000       0.111297         3.0286 
  18   0.0000       0.126576         3.4443 
  19   0.0000       0.138160         3.7595 
  20   0.0000       0.145594         3.9618 
  21   0.0000       0.176920         4.8143 
*Only the first 10 virtual orbitals were printed.

                    ********************************
                    * MULLIKEN POPULATION ANALYSIS *
                    ********************************

--------------------------------------------
MULLIKEN ATOMIC CHARGES AND SPIN POPULATIONS
--------------------------------------------
   0 O :   -0.335859    0.928029
   1 C :    0.103115   -0.002568
   2 C :   -0.647214    0.873149
   3 H :    0.194770    0.093476
   4 H :    0.185218    0.060091
   5 H :    0.203077    0.009497
   6 H :    0.296893    0.038326
Sum of atomic charges         :    0.0000000
Sum of atomic spin populations:    2.0000000

-----------------------------------------------------
MULLIKEN REDUCED ORBITAL CHARGES AND SPIN POPULATIONS
-----------------------------------------------------
CHARGE
  0 O s       :     4.012851  s :     4.012851
      pz      :     1.783027  p :     4.299353
      px      :     1.214887
      py      :     1.301439
      dz2     :     0.002739  d :     0.022429
      dxz     :     0.001036
      dyz     :     0.004834
      dx2y2   :     0.006848
      dxy     :     0.006973
      f0      :     0.000161  f :     0.001225
      f+1     :     0.000052
      f-1     :     0.000243
      f+2     :     0.000173
      f-2     :     0.000106
      f+3     :     0.000230
      f-3     :     0.000260

  1 C s       :     3.182859  s :     3.182859
      pz      :     0.808647  p :     2.540821
      px      :     1.058827
      py      :     0.673348
      dz2     :     0.028273  d :     0.162990
      dxz     :     0.016025
      dyz     :     0.062046
      dx2y2   :     0.010899
      dxy     :     0.045747
      f0      :     0.001818  f :     0.010216
      f+1     :     0.000944
      f-1     :     0.002288
      f+2     :     0.001427
      f-2     :     0.000586
      f+3     :     0.001659
      f-3     :     0.001494

  2 C s       :     3.600054  s :     3.600054
      pz      :     0.933438  p :     3.015383
      px      :     1.081432
      py      :     1.000514
      dz2     :    -0.004998  d :     0.027919
      dxz     :     0.013753
      dyz     :     0.008970
      dx2y2   :     0.007716
      dxy     :     0.002477
      f0      :     0.001066  f :     0.003858
      f+1     :     0.001066
      f-1     :     0.000813
      f+2     :     0.000256
      f-2     :     0.000367
      f+3     :     0.000033
      f-3     :     0.000258

  3 H s       :     0.774844  s :     0.774844
      pz      :     0.005172  p :     0.027736
      px      :     0.012026
      py      :     0.010538
      dz2     :     0.000635  d :     0.002649
      dxz     :     0.000336
      dyz     :     0.000375
      dx2y2   :     0.000861
      dxy     :     0.000442

  4 H s       :     0.773559  s :     0.773559
      pz      :     0.014174  p :     0.038466
      px      :     0.016893
      py      :     0.007399
      dz2     :     0.000434  d :     0.002758
      dxz     :     0.000791
      dyz     :     0.000127
      dx2y2   :     0.000696
      dxy     :     0.000710

  5 H s       :     0.758835  s :     0.758835
      pz      :     0.006154  p :     0.036140
      px      :     0.012138
      py      :     0.017849
      dz2     :     0.000278  d :     0.001948
      dxz     :     0.000522
      dyz     :     0.000221
      dx2y2   :     0.000481
      dxy     :     0.000445

  6 H s       :     0.658632  s :     0.658632
      pz      :     0.011786  p :     0.042191
      px      :     0.015955
      py      :     0.014449
      dz2     :     0.000717  d :     0.002285
      dxz     :     0.000401
      dyz     :     0.000423
      dx2y2   :     0.000427
      dxy     :     0.000316


SPIN
  0 O s       :     0.002411  s :     0.002411
      pz      :     0.113391  p :     0.930158
      px      :     0.679788
      py      :     0.136979
      dz2     :    -0.000418  d :    -0.004365
      dxz     :    -0.000091
      dyz     :    -0.000143
      dx2y2   :    -0.001013
      dxy     :    -0.002701
      f0      :     0.000033  f :    -0.000175
      f+1     :     0.000028
      f-1     :     0.000016
      f+2     :    -0.000041
      f-2     :     0.000002
      f+3     :    -0.000117
      f-3     :    -0.000097

  1 C s       :     0.004495  s :     0.004495
      pz      :    -0.028088  p :    -0.093177
      px      :    -0.007499
      py      :    -0.057589
      dz2     :     0.003573  d :     0.083461
      dxz     :     0.016089
      dyz     :     0.011525
      dx2y2   :     0.017305
      dxy     :     0.034969
      f0      :     0.000126  f :     0.002653
      f+1     :     0.000239
      f-1     :     0.000836
      f+2     :     0.000014
      f-2     :     0.000449
      f+3     :     0.000451
      f-3     :     0.000538

  2 C s       :    -0.013813  s :    -0.013813
      pz      :     0.025234  p :     0.900107
      px      :     0.203760
      py      :     0.671113
      dz2     :    -0.001818  d :    -0.012172
      dxz     :    -0.002845
      dyz     :    -0.001969
      dx2y2   :    -0.002174
      dxy     :    -0.003366
      f0      :    -0.000225  f :    -0.000974
      f+1     :    -0.000051
      f-1     :    -0.000080
      f+2     :    -0.000069
      f-2     :    -0.000241
      f+3     :    -0.000026
      f-3     :    -0.000282

  3 H s       :     0.088236  s :     0.088236
      pz      :     0.000220  p :     0.005154
      px      :     0.002191
      py      :     0.002743
      dz2     :     0.000030  d :     0.000086
      dxz     :     0.000011
      dyz     :     0.000025
      dx2y2   :    -0.000003
      dxy     :     0.000023

  4 H s       :     0.054124  s :     0.054124
      pz      :    -0.000336  p :     0.005975
      px      :     0.004139
      py      :     0.002172
      dz2     :     0.000010  d :    -0.000008
      dxz     :    -0.000013
      dyz     :     0.000012
      dx2y2   :    -0.000010
      dxy     :    -0.000006

  5 H s       :    -0.016697  s :    -0.016697
      pz      :     0.002524  p :     0.025457
      px      :     0.007414
      py      :     0.015520
      dz2     :     0.000068  d :     0.000736
      dxz     :     0.000013
      dyz     :     0.000141
      dx2y2   :     0.000263
      dxy     :     0.000251

  6 H s       :     0.013856  s :     0.013856
      pz      :     0.000069  p :     0.023396
      px      :     0.007347
      py      :     0.015979
      dz2     :     0.000145  d :     0.001075
      dxz     :     0.000170
      dyz     :     0.000278
      dx2y2   :     0.000382
      dxy     :     0.000100



                     *******************************
                     * LOEWDIN POPULATION ANALYSIS *
                     *******************************

-------------------------------------------
LOEWDIN ATOMIC CHARGES AND SPIN POPULATIONS
-------------------------------------------
   0 O :    0.069258    0.865197
   1 C :   -0.246064    0.207056
   2 C :    0.229242    0.681563
   3 H :    0.042734    0.071346
   4 H :   -0.012249    0.029382
   5 H :    0.023449    0.057715
   6 H :   -0.106370    0.087740

----------------------------------------------------
LOEWDIN REDUCED ORBITAL CHARGES AND SPIN POPULATIONS
----------------------------------------------------
CHARGE
  0 O s       :     3.482013  s :     3.482013
      pz      :     1.643221  p :     4.195600
      px      :     1.148236
      py      :     1.404143
      dz2     :     0.036979  d :     0.249281
      dxz     :     0.009066
      dyz     :     0.069676
      dx2y2   :     0.064538
      dxy     :     0.069022
      f0      :     0.000356  f :     0.003847
      f+1     :     0.000097
      f-1     :     0.000752
      f+2     :     0.000593
      f-2     :     0.000315
      f+3     :     0.000805
      f-3     :     0.000929

  1 C s       :     2.643003  s :     2.643003
      pz      :     0.902402  p :     2.610269
      px      :     0.912580
      py      :     0.795287
      dz2     :     0.215245  d :     0.910602
      dxz     :     0.137022
      dyz     :     0.268724
      dx2y2   :     0.141547
      dxy     :     0.148065
      f0      :     0.012435  f :     0.082190
      f+1     :     0.007009
      f-1     :     0.016167
      f+2     :     0.012933
      f-2     :     0.008233
      f+3     :     0.013052
      f-3     :     0.012360

  2 C s       :     2.749996  s :     2.749996
      pz      :     0.937486  p :     2.597306
      px      :     0.890279
      py      :     0.769541
      dz2     :     0.108171  d :     0.401446
      dxz     :     0.171697
      dyz     :     0.083102
      dx2y2   :     0.017298
      dxy     :     0.021179
      f0      :     0.004739  f :     0.022010
      f+1     :     0.006609
      f-1     :     0.004968
      f+2     :     0.001525
      f-2     :     0.002700
      f+3     :     0.000555
      f-3     :     0.000913

  3 H s       :     0.669570  s :     0.669570
      pz      :     0.081170  p :     0.258000
      px      :     0.094888
      py      :     0.081943
      dz2     :     0.005973  d :     0.029696
      dxz     :     0.004562
      dyz     :     0.005505
      dx2y2   :     0.007479
      dxy     :     0.006176

  4 H s       :     0.679700  s :     0.679700
      pz      :     0.099526  p :     0.297842
      px      :     0.130806
      py      :     0.067510
      dz2     :     0.005412  d :     0.034707
      dxz     :     0.009657
      dyz     :     0.001699
      dx2y2   :     0.008785
      dxy     :     0.009154

  5 H s       :     0.714309  s :     0.714309
      pz      :     0.061084  p :     0.241412
      px      :     0.108598
      py      :     0.071731
      dz2     :     0.003113  d :     0.020830
      dxz     :     0.006119
      dyz     :     0.002019
      dx2y2   :     0.004880
      dxy     :     0.004699

  6 H s       :     0.744787  s :     0.744787
      pz      :     0.101957  p :     0.325785
      px      :     0.118312
      py      :     0.105516
      dz2     :     0.008948  d :     0.035798
      dxz     :     0.008239
      dyz     :     0.007295
      dx2y2   :     0.006016
      dxy     :     0.005301


SPIN
  0 O s       :     0.013400  s :     0.013400
      pz      :     0.111001  p :     0.839150
      px      :     0.612149
      py      :     0.116000
      dz2     :     0.001883  d :     0.012662
      dxz     :     0.002271
      dyz     :    -0.000182
      dx2y2   :     0.003031
      dxy     :     0.005658
      f0      :    -0.000002  f :    -0.000015
      f+1     :     0.000013
      f-1     :     0.000011
      f+2     :    -0.000034
      f-2     :     0.000038
      f+3     :    -0.000048
      f-3     :     0.000007

  1 C s       :    -0.004805  s :    -0.004805
      pz      :    -0.013828  p :    -0.018063
      px      :     0.004943
      py      :    -0.009177
      dz2     :     0.009066  d :     0.208813
      dxz     :     0.035759
      dyz     :     0.058420
      dx2y2   :     0.030521
      dxy     :     0.075046
      f0      :     0.001300  f :     0.021112
      f+1     :     0.001459
      f-1     :     0.005629
      f+2     :     0.000624
      f-2     :     0.004733
      f+3     :     0.003234
      f-3     :     0.004135

  2 C s       :     0.016831  s :     0.016831
      pz      :     0.014855  p :     0.665098
      px      :     0.157317
      py      :     0.492927
      dz2     :    -0.000946  d :     0.000120
      dxz     :     0.004391
      dyz     :    -0.002235
      dx2y2   :     0.000697
      dxy     :    -0.001787
      f0      :    -0.000302  f :    -0.000486
      f+1     :     0.000336
      f-1     :    -0.000115
      f+2     :    -0.000088
      f-2     :    -0.000344
      f+3     :     0.000276
      f-3     :    -0.000249

  3 H s       :     0.062508  s :     0.062508
      pz      :     0.005100  p :     0.009256
      px      :     0.001134
      py      :     0.003022
      dz2     :    -0.000067  d :    -0.000418
      dxz     :    -0.000073
      dyz     :    -0.000030
      dx2y2   :    -0.000159
      dxy     :    -0.000089

  4 H s       :     0.027214  s :     0.027214
      pz      :    -0.001215  p :     0.002613
      px      :     0.001619
      py      :     0.002208
      dz2     :    -0.000017  d :    -0.000444
      dxz     :    -0.000088
      dyz     :     0.000005
      dx2y2   :    -0.000145
      dxy     :    -0.000199

  5 H s       :    -0.013717  s :    -0.013717
      pz      :     0.001918  p :     0.064881
      px      :     0.016937
      py      :     0.046026
      dz2     :     0.000191  d :     0.006551
      dxz     :     0.000544
      dyz     :     0.001202
      dx2y2   :     0.002407
      dxy     :     0.002206

  6 H s       :    -0.010201  s :    -0.010201
      pz      :     0.002934  p :     0.085762
      px      :     0.021185
      py      :     0.061643
      dz2     :     0.000555  d :     0.012180
      dxz     :     0.002140
      dyz     :     0.003503
      dx2y2   :     0.005108
      dxy     :     0.000874



                      *****************************
                      * MAYER POPULATION ANALYSIS *
                      *****************************

  NA   - Mulliken gross atomic population
  ZA   - Total nuclear charge
  QA   - Mulliken gross atomic charge
  VA   - Mayer's total valence
  BVA  - Mayer's bonded valence
  FA   - Mayer's free valence

  ATOM       NA         ZA         QA         VA         BVA        FA
  0 O      8.3359     8.0000    -0.3359     1.8301     1.0513     0.7788
  1 C      5.8969     6.0000     0.1031     3.4962     3.4811     0.0151
  2 C      6.6472     6.0000    -0.6472     3.4909     2.7198     0.7711
  3 H      0.8052     1.0000     0.1948     0.9993     0.9911     0.0082
  4 H      0.8148     1.0000     0.1852     1.0244     1.0224     0.0021
  5 H      0.7969     1.0000     0.2031     0.9822     0.9812     0.0010
  6 H      0.7031     1.0000     0.2969     0.9424     0.9420     0.0005

  Mayer bond orders larger than 0.100000
B(  0-O ,  1-C ) :   0.9018 B(  1-C ,  2-C ) :   0.7233 B(  1-C ,  3-H ) :   0.9486 
B(  1-C ,  4-H ) :   0.9715 B(  2-C ,  5-H ) :   1.0133 B(  2-C ,  6-H ) :   0.9305 


-------
TIMINGS
-------

Total SCF time: 0 days 0 hours 0 min 7 sec 

Total time                  ....       7.754 sec
Sum of individual times     ....       7.721 sec  ( 99.6%)

SCF preparation             ....       1.604 sec  ( 20.7%)
Fock matrix formation       ....       4.838 sec  ( 62.4%)
  Startup                   ....       0.080 sec  (  1.6% of F)
  Split-RI-J                ....       0.576 sec  ( 11.9% of F)
  Chain of spheres X        ....       2.593 sec  ( 53.6% of F)
  XC integration            ....       1.272 sec  ( 26.3% of F)
    XC Preparation          ....       0.000 sec  (  0.0% of XC)
    Basis function eval.    ....       0.088 sec  (  6.9% of XC)
    Density eval.           ....       0.228 sec  ( 17.9% of XC)
    XC-Functional eval.     ....       0.016 sec  (  1.2% of XC)
    XC-Potential eval.      ....       0.336 sec  ( 26.4% of XC)
Diagonalization             ....       0.000 sec  (  0.0%)
Density matrix formation    ....       0.150 sec  (  1.9%)
Total Energy calculation    ....       0.151 sec  (  2.0%)
Population analysis         ....       0.042 sec  (  0.5%)
[...]
[1741611752.369939] [ohm:3532305:0]        ib_iface.c:1059 UCX  ERROR ibv_create_cq(cqe=256) failed: Connection timed out
[1741611752.371987] [ohm:3532386:0]        ib_iface.c:1059 UCX  ERROR ibv_create_cq(cqe=256) failed: Connection timed out
[1741611752.372666] [ohm:3532317:0]        ib_iface.c:1059 UCX  ERROR ibv_create_cq(cqe=256) failed: Connection timed out
[1741611752.372711] [ohm:3532335:0]        ib_iface.c:1059 UCX  ERROR ibv_create_cq(cqe=256) failed: Connection timed out
[1741611752.375281] [ohm:3532414:0]        ib_iface.c:1059 UCX  ERROR ibv_create_cq(cqe=256) failed: Connection timed out
[1741611752.375610] [ohm:3532321:0]        ib_iface.c:1059 UCX  ERROR ibv_create_cq(cqe=256) failed: Connection timed out
[1741611752.375903] [ohm:3532393:0]        ib_iface.c:1059 UCX  ERROR ibv_create_cq(cqe=256) failed: Connection timed out
[1741611752.375950] [ohm:3532368:0]        ib_iface.c:1059 UCX  ERROR ibv_create_cq(cqe=256) failed: Connection timed out
[1741611752.376102] [ohm:3532307:0]        ib_iface.c:1059 UCX  ERROR ibv_create_cq(cqe=256) failed: Connection timed out
[1741611752.376511] [ohm:3532424:0]        ib_iface.c:1059 UCX  ERROR ibv_create_cq(cqe=256) failed: Connection timed out


           ************************************************************
           *        Program running with 64 parallel MPI-processes    *
           *              working on a common directory               *
           ************************************************************

------------------------------------------------------------------------------
                              ORCA PROPERTY CALCULATIONS
------------------------------------------------------------------------------

GBWName                                 ... orca.gbw
Number of atoms                         ...      7
Number of basis functions               ...    182
Max core memory                         ...   1024 MB

Electric properties:
Dipole moment                           ... YES
Quadrupole moment                       ...  NO
Static polarizability (Dipole/Dipole)   ...  NO
Static polarizability (Dipole/Quad.)    ...  NO
Static polarizability (Quad./Quad.)     ...  NO
Static polarizability (Velocity)        ...  NO

Atomic electric properties:
Dipole moment                           ...  NO
Quadrupole moment                       ...  NO
Static polarizability                   ...  NO

Choice of electric origin               ... Center of mass
Position of electric origin             ...     0.767720     0.121568     0.137777

General magnetic properties:
Magnetizability                         ...  NO

EPR properties:
g-Tensor (aka g-matrix)                 ...  NO
Zero-Field splitting spin-orbit         ...  NO
Zero-field splitting spin-spin          ...  NO
Hyperfine couplings                     ...  NO (   0 nuclei)
Quadrupole couplings                    ...  NO (   0 nuclei)
Contact density                         ...  NO (   0 nuclei)

NMR properties:
Chemical shifts                         ...  NO (   0 nuclei)
Spin-rotation constants                 ...  NO (   0 nuclei)
Spin-spin couplings                     ...  NO (   0 nuclei,    0 pairs)

Choice of magnetic origin               ... GIAO
Position of magnetic origin             ...     0.000000     0.000000     0.000000

Properties with geometric perturbations:
SCF Hessian                             ...  NO
IR spectrum                             ...  NO
VCD spectrum                            ...  NO
X-ray spectroscopy properties:
SCF XES/XAS/RIXS spectra                ...  NO


-------------
DIPOLE MOMENT
-------------

Method             : SCF
Type of density    : Electron Density
Multiplicity       :   3
Irrep              :   0
Energy             :  -153.7669689205172858 Eh
Relativity type    : 
Basis              : AO
                                X                 Y                 Z
Electronic contribution:     -0.891135054       2.110786106       1.726897797
Nuclear contribution   :      1.096213167      -2.768316259      -1.861588408
                        -----------------------------------------
Total Dipole Moment    :      0.205078113      -0.657530153      -0.134690611
                        -----------------------------------------
Magnitude (a.u.)       :      0.701815143
Magnitude (Debye)      :      1.783872327



--------------------
Rotational spectrum 
--------------------
 
Rotational constants in cm-1:             1.471655             0.339048             0.297632 
Rotational constants in MHz :         44119.113010         10164.415754          8922.793608 

Dipole components along the rotational axes: 
x,y,z [a.u.] :    -0.543797    -0.443534     0.010351 
x,y,z [Debye]:    -1.382221    -1.127374     0.026311 

 

-------------
DIPOLE MOMENT
-------------

Method             : TDA/CIS
Type of density    : Electron Density
Level              : Relaxed density
State              :   2
Multiplicity       :   3
Irrep              :   0
Energy             :     0.0000000000000000 Eh
Relativity type    : 
Basis              : AO
                                X                 Y                 Z
Electronic contribution:     -0.896559022       2.178359880       1.759153093
Nuclear contribution   :      1.096213167      -2.768316259      -1.861588408
                        -----------------------------------------
Total Dipole Moment    :      0.199654144      -0.589956378      -0.102435315
                        -----------------------------------------
Magnitude (a.u.)       :      0.631191967
Magnitude (Debye)      :      1.604362479



--------------------
Rotational spectrum 
--------------------
 
Rotational constants in cm-1:             1.471655             0.339048             0.297632 
Rotational constants in MHz :         44119.113010         10164.415754          8922.793608 

Dipole components along the rotational axes: 
x,y,z [a.u.] :    -0.476850    -0.413505    -0.005538 
x,y,z [Debye]:    -1.212057    -1.051047    -0.014076 

 

Dipole moment calculation done in   0.0 sec 

Maximum memory used throughout the entire PROP-calculation: 7.4 MB
[1741611754.138596] [ohm:3532621:0]        ib_iface.c:1059 UCX  ERROR ibv_create_cq(cqe=256) failed: Connection timed out
[1741611754.157870] [ohm:3532622:0]        ib_iface.c:1059 UCX  ERROR ibv_create_cq(cqe=256) failed: Connection timed out
[1741611754.173855] [ohm:3532618:0]        ib_iface.c:1059 UCX  ERROR ibv_create_cq(cqe=256) failed: Connection timed out
[1741611754.194030] [ohm:3532625:0]        ib_iface.c:1059 UCX  ERROR ibv_create_cq(cqe=256) failed: Connection timed out
[1741611754.195982] [ohm:3532644:0]        ib_iface.c:1059 UCX  ERROR ibv_create_cq(cqe=256) failed: Connection timed out
[1741611754.196479] [ohm:3532645:0]        ib_iface.c:1059 UCX  ERROR ibv_create_cq(cqe=256) failed: Connection timed out
[1741611754.206240] [ohm:3532624:0]        ib_iface.c:1059 UCX  ERROR ibv_create_cq(cqe=256) failed: Connection timed out
[1741611754.206651] [ohm:3532660:0]        ib_iface.c:1059 UCX  ERROR ibv_create_cq(cqe=256) failed: Connection timed out
[1741611754.208766] [ohm:3532623:0]        ib_iface.c:1059 UCX  ERROR ibv_create_cq(cqe=256) failed: Connection timed out
[1741611754.210205] [ohm:3532675:0]        ib_iface.c:1059 UCX  ERROR ibv_create_cq(cqe=256) failed: Connection timed out
[1741611754.210272] [ohm:3532679:0]        ib_iface.c:1059 UCX  ERROR ibv_create_cq(cqe=256) failed: Connection timed out
[1741611754.215625] [ohm:3532620:0]        ib_iface.c:1059 UCX  ERROR ibv_create_cq(cqe=256) failed: Connection timed out
[1741611754.227634] [ohm:3532670:0]        ib_iface.c:1059 UCX  ERROR ibv_create_cq(cqe=256) failed: Connection timed out
[1741611754.242948] [ohm:3532641:0]        ib_iface.c:1059 UCX  ERROR ibv_create_cq(cqe=256) failed: Connection timed out
[1741611754.247104] [ohm:3532719:0]        ib_iface.c:1059 UCX  ERROR ibv_create_cq(cqe=256) failed: Connection timed out
[1741611754.257320] [ohm:3532640:0]        ib_iface.c:1059 UCX  ERROR ibv_create_cq(cqe=256) failed: Connection timed out
[1741611754.273246] [ohm:3532757:0]        ib_iface.c:1059 UCX  ERROR ibv_create_cq(cqe=256) failed: Connection timed out
[1741611754.273956] [ohm:3532721:0]        ib_iface.c:1059 UCX  ERROR ibv_create_cq(cqe=256) failed: Connection timed out
[1741611754.276071] [ohm:3532643:0]        ib_iface.c:1059 UCX  ERROR ibv_create_cq(cqe=256) failed: Connection timed out
[1741611754.289044] [ohm:3532627:0]        ib_iface.c:1059 UCX  ERROR ibv_create_cq(cqe=256) failed: Connection timed out
[1741611754.291498] [ohm:3532651:0]        ib_iface.c:1059 UCX  ERROR ibv_create_cq(cqe=256) failed: Connection timed out
[1741611754.303851] [ohm:3532629:0]        ib_iface.c:1059 UCX  ERROR ibv_create_cq(cqe=256) failed: Connection timed out
[1741611754.316231] [ohm:3532628:0]        ib_iface.c:1059 UCX  ERROR ibv_create_cq(cqe=256) failed: Connection timed out
[1741611754.327063] [ohm:3532666:0]        ib_iface.c:1059 UCX  ERROR ibv_create_cq(cqe=256) failed: Connection timed out
[1741611754.329991] [ohm:3532674:0]        ib_iface.c:1059 UCX  ERROR ibv_create_cq(cqe=256) failed: Connection timed out
[1741611754.337460] [ohm:3532748:0]        ib_iface.c:1059 UCX  ERROR ibv_create_cq(cqe=256) failed: Connection timed out
[1741611754.349559] [ohm:3532626:0]        ib_iface.c:1059 UCX  ERROR ibv_create_cq(cqe=256) failed: Connection timed out
[1741611754.359953] [ohm:3532681:0]        ib_iface.c:1059 UCX  ERROR ibv_create_cq(cqe=256) failed: Connection timed out
[1741611754.363047] [ohm:3532678:0]        ib_iface.c:1059 UCX  ERROR ibv_create_cq(cqe=256) failed: Connection timed out
[1741611754.365253] [ohm:3532701:0]        ib_iface.c:1059 UCX  ERROR ibv_create_cq(cqe=256) failed: Connection timed out
[1741611754.377757] [ohm:3532685:0]        ib_iface.c:1059 UCX  ERROR ibv_create_cq(cqe=256) failed: Connection timed out
[1741611754.380996] [ohm:3532696:0]        ib_iface.c:1059 UCX  ERROR ibv_create_cq(cqe=256) failed: Connection timed out
[1741611754.384961] [ohm:3532762:0]        ib_iface.c:1059 UCX  ERROR ibv_create_cq(cqe=256) failed: Connection timed out
[1741611754.385818] [ohm:3532642:0]        ib_iface.c:1059 UCX  ERROR ibv_create_cq(cqe=256) failed: Connection timed out
[1741611754.385853] [ohm:3532619:0]        ib_iface.c:1059 UCX  ERROR ibv_create_cq(cqe=256) failed: Connection timed out
[1741611754.386742] [ohm:3532669:0]        ib_iface.c:1059 UCX  ERROR ibv_create_cq(cqe=256) failed: Connection timed out
[1741611754.387071] [ohm:3532647:0]        ib_iface.c:1059 UCX  ERROR ibv_create_cq(cqe=256) failed: Connection timed out
[1741611754.388835] [ohm:3532671:0]        ib_iface.c:1059 UCX  ERROR ibv_create_cq(cqe=256) failed: Connection timed out
[1741611754.391343] [ohm:3532705:0]        ib_iface.c:1059 UCX  ERROR ibv_create_cq(cqe=256) failed: Connection timed out
[1741611754.395553] [ohm:3532745:0]        ib_iface.c:1059 UCX  ERROR ibv_create_cq(cqe=256) failed: Connection timed out
[1741611754.396627] [ohm:3532715:0]        ib_iface.c:1059 UCX  ERROR ibv_create_cq(cqe=256) failed: Connection timed out
[1741611754.397108] [ohm:3532672:0]        ib_iface.c:1059 UCX  ERROR ibv_create_cq(cqe=256) failed: Connection timed out
[1741611754.403352] [ohm:3532677:0]        ib_iface.c:1059 UCX  ERROR ibv_create_cq(cqe=256) failed: Connection timed out
[1741611754.413943] [ohm:3532665:0]        ib_iface.c:1059 UCX  ERROR ibv_create_cq(cqe=256) failed: Connection timed out
[1741611754.418617] [ohm:3532683:0]        ib_iface.c:1059 UCX  ERROR ibv_create_cq(cqe=256) failed: Connection timed out
[1741611754.424929] [ohm:3532729:0]        ib_iface.c:1059 UCX  ERROR ibv_create_cq(cqe=256) failed: Connection timed out
[1741611754.425155] [ohm:3532692:0]        ib_iface.c:1059 UCX  ERROR ibv_create_cq(cqe=256) failed: Connection timed out
[1741611754.428470] [ohm:3532673:0]        ib_iface.c:1059 UCX  ERROR ibv_create_cq(cqe=256) failed: Connection timed out
[1741611754.433616] [ohm:3532661:0]        ib_iface.c:1059 UCX  ERROR ibv_create_cq(cqe=256) failed: Connection timed out
[1741611754.434190] [ohm:3532668:0]        ib_iface.c:1059 UCX  ERROR ibv_create_cq(cqe=256) failed: Connection timed out
[1741611754.441214] [ohm:3532676:0]        ib_iface.c:1059 UCX  ERROR ibv_create_cq(cqe=256) failed: Connection timed out
[1741611754.443727] [ohm:3532726:0]        ib_iface.c:1059 UCX  ERROR ibv_create_cq(cqe=256) failed: Connection timed out
[1741611754.444120] [ohm:3532754:0]        ib_iface.c:1059 UCX  ERROR ibv_create_cq(cqe=256) failed: Connection timed out
[1741611754.444354] [ohm:3532733:0]        ib_iface.c:1059 UCX  ERROR ibv_create_cq(cqe=256) failed: Connection timed out
[1741611754.448156] [ohm:3532751:0]        ib_iface.c:1059 UCX  ERROR ibv_create_cq(cqe=256) failed: Connection timed out
[1741611754.449586] [ohm:3532709:0]        ib_iface.c:1059 UCX  ERROR ibv_create_cq(cqe=256) failed: Connection timed out
[1741611754.450599] [ohm:3532765:0]        ib_iface.c:1059 UCX  ERROR ibv_create_cq(cqe=256) failed: Connection timed out
[1741611754.453800] [ohm:3532741:0]        ib_iface.c:1059 UCX  ERROR ibv_create_cq(cqe=256) failed: Connection timed out
[1741611754.454555] [ohm:3532739:0]        ib_iface.c:1059 UCX  ERROR ibv_create_cq(cqe=256) failed: Connection timed out
[1741611754.455074] [ohm:3532652:0]        ib_iface.c:1059 UCX  ERROR ibv_create_cq(cqe=256) failed: Connection timed out
[1741611754.456399] [ohm:3532655:0]        ib_iface.c:1059 UCX  ERROR ibv_create_cq(cqe=256) failed: Connection timed out
[1741611754.456771] [ohm:3532769:0]        ib_iface.c:1059 UCX  ERROR ibv_create_cq(cqe=256) failed: Connection timed out
[1741611754.457124] [ohm:3532712:0]        ib_iface.c:1059 UCX  ERROR ibv_create_cq(cqe=256) failed: Connection timed out
[1741611754.458143] [ohm:3532736:0]        ib_iface.c:1059 UCX  ERROR ibv_create_cq(cqe=256) failed: Connection timed out

--------------------------------
SUGGESTED CITATIONS FOR THIS RUN
--------------------------------

Below you find a list of papers that are relevant to this ORCA run
We neither can nor want to force you to cite these papers, but we appreciate if you do
You receive ORCA, which is the product of decades of hard work by many enthusiastic individuals, for free
The only thing we kindly ask in return is that you cite our papers,
We deeply appreciate it, if you show your appreciation for ORCA by not just citing the generic ORCA reference.

Please note that relegating all ORCA citations to the supporting information does *not* help us.
SI sections are not indexed - citations you put there will not count into any citation statistics
But we need these citations in order to attract the funding resources that allow us to do what we are doing

Therefore, if you are a happy ORCA user, please consider citing a few of the papers listed below in the main body of your paper

In addition to the list printed below, the program has created the file orca.bibtex that contains the list in bibtex format
You can import this file easily into all common literature databanks and citation aid programs


List of essential papers. We consider these as the minimum necessary citations

  1. Neese,F.
     Software update: the ORCA program system, version 5.0
     WIRES Comput. Molec. Sci., 2022 12(1)e1606
     doi.org/10.1002/wcms.1606

List of papers to cite with high priority. The work reported in these papers was absolutely
necessary for this run to complete.
Our perspective: the developers of density functionals and basis sets usually get cited in chemistry papers
Good! But without the algorithms to do something with them, the functionals or basis sets would not do anything.
Hence, in our opinion, the algorithm design and method developments papers are equally worthy of getting cited

  1. Neese,F.; Olbrich,G.
     Efficient use of the resolution of the identity approximation in time-dependent density functional calculations with hybrid density functionals
     Chem. Phys. Lett., 2002 362 170-178
     doi.org/10.1016/s0009-2614(02)01053-9
  2. Neese,F.
     An improvement of the resolution of the identity approximation for the formation of the Coulomb matrix
     J. Comp. Chem., 2003 24(14)1740-1747
     doi.org/10.1002/jcc.10318
  3. Neese,F.; Wennmohs,F.; Hansen,A.; Becker,U.
     Efficient, approximate and parallel Hartree-Fock and hybrid DFT calculations. A 'chain-of-spheres' algorithm for the Hartree-Fock exchange
     Chem. Phys., 2009 356(1-3)98-109
     doi.org/10.1016/j.chemphys.2008.10.036
  4. Petrenko,T.; Kossmann,S.; Neese,F.
     Efficient time-dependent density functional theory approximations for hybrid density functionals: Analytical gradients and parallelization
     J. Chem. Phys., 2011 134 054116
     doi.org/10.1063/1.3533441
  5. Helmich-Paris,B.; de Souza,B.; Neese,F.; Izsák,R.
     An improved chain of spheres for exchange algorithm
     J. Chem. Phys., 2021 155 104109
     doi.org/doi: 10.1063/5.0058766.
  6. Neese,F.
     The SHARK Integral Generation and Digestion System
     J. Comp. Chem., 2022  1-16
     doi.org/10.1002/jcc.26942
  7. Lehtola,S.; Steigemann,C.; Oliveira,M.; Marques,M.
     Recent developments in Libxc - A comprehensive library of functionals for density functional theory
     Software X, 2018 7 
     doi.org/10.1016/j.softx.2017.11.002
  8. Grimme,S.; Antony,J.; Ehrlich,S.; Krieg,H.
     A consistent and accurate ab initio parametrization of density functional dispersion correction (DFT-D) for the 94 elements H-Pu
     J. Chem. Phys., 2010 132 154104-XXXX
     doi.org/10.1063/1.3382344
  9. Grimme,S.; Ehrlich,S.; Goerigk,L.
     Effect of the damping function in dispersion corrected density functional theory
     J. Comput. Chem., 2011 32(7)1456-1465
     doi.org/10.1002/jcc.21759

List of suggested additional citations. These are papers that are important in the 'surrounding' of 
of this run, or papers that preceded the highly important papers. If you like your results we are grateful for a citation.

  1. Izsak,R.; Neese,F.
     An overlap fitted chain of spheres exchange method
     J. Chem. Phys., 2011 135 144105
     doi.org/10.1063/1.3646921
  2. Izsak,R.; Hansen,A.; Neese,F.
     The resolution of identity and chain of spheres approximations for the LPNO-CCSD singles Fock term
     Molec. Phys., 2012 110 2413-2417
     doi.org/10.1080/00268976.2012.687466
  3. Neese,F.
     The ORCA program system
     WIRES Comput. Molec. Sci., 2012 2(1)73-78
     doi.org/10.1002/wcms.81
  4. Izsak,R.; Neese,F.; Klopper,W.
     Robust fitting techniques in the chain of spheres approximation to the Fock exchange: The role of the complementary space
     J. Chem. Phys., 2013 139 
     doi.org/10.1063/1.4819264
  5. Neese,F.
     Software update: the ORCA program system, version 4.0
     WIRES Comput. Molec. Sci., 2018 8(1)1-6
     doi.org/10.1002/wcms.1327
  6. Neese,F.; Wennmohs,F.; Becker,U.; Riplinger,C.
     The ORCA quantum chemistry program package
     J. Chem. Phys., 2020 152 Art. No. L224108
     doi.org/10.1063/5.0004608

List of optional additional citations

  1. Neese,F.
     Approximate second-order SCF convergence for spin unrestricted wavefunctions
     Chem. Phys. Lett., 2000 325(1-3)93-98
     doi.org/10.1016/s0009-2614(00)00662-x

Timings for individual modules:

Sum of individual times          ...       24.973 sec (=   0.416 min)
Startup calculation              ...        2.359 sec (=   0.039 min)   9.4 %
SCF iterations                   ...       10.314 sec (=   0.172 min)  41.3 %
Property integrals               ...        2.278 sec (=   0.038 min)   9.1 %
Property calculations            ...        2.210 sec (=   0.037 min)   8.9 %
CIS module                       ...        7.811 sec (=   0.130 min)  31.3 %
                             ****ORCA TERMINATED NORMALLY****
TOTAL RUN TIME: 0 days 0 hours 0 minutes 27 seconds 132 msec
