
                                 *****************
                                 * O   R   C   A *
                                 *****************

                                            #,                                       
                                            ###                                      
                                            ####                                     
                                            #####                                    
                                            ######                                   
                                           ########,                                 
                                     ,,################,,,,,                         
                               ,,#################################,,                 
                          ,,##########################################,,             
                       ,#########################################, ''#####,          
                    ,#############################################,,   '####,        
                  ,##################################################,,,,####,       
                ,###########''''           ''''###############################       
              ,#####''   ,,,,##########,,,,          '''####'''          '####       
            ,##' ,,,,###########################,,,                        '##       
           ' ,,###''''                  '''############,,,                           
         ,,##''                                '''############,,,,        ,,,,,,###''
      ,#''                                            '''#######################'''  
     '                                                          ''''####''''         
             ,#######,   #######,   ,#######,      ##                                
            ,#'     '#,  ##    ##  ,#'     '#,    #''#        ,####,   ,####,        
            ##       ##  ##   ,#'  ##            #'  '#       #'       #'  '#        
            ##       ##  #######   ##           ,######,      #####,   #    #        
            '#,     ,#'  ##    ##  '#,     ,#' ,#      #,     #,   #   #,  ,#        
             '#######'   ##     ##  '#######'  #'      '#     '####' # '####'        



                #########################################################
                #                        -***-                          #
                #          Department of theory and spectroscopy        #
                #                                                       #
                #                      Frank Neese                      #
                #                                                       #
                #     Directorship, Architecture, Infrastructure        #
                #                    SHARK, DRIVERS                     #
                #        Core code/Algorithms in most modules           #
                #                                                       #
                #        Max Planck Institute fuer Kohlenforschung      #
                #                Kaiser Wilhelm Platz 1                 #
                #                 D-45470 Muelheim/Ruhr                 #
                #                      Germany                          #
                #                                                       #
                #                  All rights reserved                  #
                #                        -***-                          #
                #########################################################


                         Program Version 6.0.0  -   RELEASE  -


 With contributions from (in alphabetic order):
   Daniel Aravena         : Magnetic Suceptibility
   Michael Atanasov       : Ab Initio Ligand Field Theory (pilot matlab implementation)
   Alexander A. Auer      : GIAO ZORA, VPT2 properties, NMR spectrum
   Ute Becker             : All parallelization in ORCA, NUMFREQ, NUMCALC
   Giovanni Bistoni       : ED, misc. LED, open-shell LED, HFLD
   Martin Brehm           : Molecular dynamics
   Dmytro Bykov           : pre 5.0 version of the SCF Hessian
   Marcos Casanova-Páez   : Triplet and SCS-CIS(D). UHF-(DLPNO)-IP/EA/STEOM-CCSD. UHF-CVS-IP/STEOM-CCSD
   Vijay G. Chilkuri      : MRCI spin determinant printing, contributions to CSF-ICE
   Pauline Colinet        : FMM embedding
   Dipayan Datta          : RHF DLPNO-CCSD density
   Achintya Kumar Dutta   : EOM-CC, STEOM-CC
   Nicolas Foglia         : Exact transition moments, OPA infrastructure, MCD improvements
   Dmitry Ganyushin       : Spin-Orbit,Spin-Spin,Magnetic field MRCI
   Miquel Garcia          : C-PCM and meta-GGA Hessian, CCSD/C-PCM, Gaussian charge scheme
   Tiago L. C. Gouveia    : GS-ROHF, GS-ROCIS
   Yang Guo               : DLPNO-NEVPT2, F12-NEVPT2, CIM, IAO-localization
   Andreas Hansen         : Spin unrestricted coupled pair/coupled cluster methods
   Ingolf Harden          : AUTO-CI MPn and infrastructure 
   Benjamin Helmich-Paris : MC-RPA, TRAH-(SCF,CASSCF), AVAS, COSX integrals, SCF dyn. polar.
   Lee Huntington         : MR-EOM, pCC
   Robert Izsak           : Overlap fitted RIJCOSX, COSX-SCS-MP3, EOM
   Riya Kayal             : Wick's Theorem for AUTO-CI, AUTO-CI UHF-CCSDT
   Emily Kempfer          : AUTO-CI, RHF CISDT and CCSDT
   Christian Kollmar      : KDIIS, OOCD, Brueckner-CCSD(T), CCSD density, CASPT2, CASPT2-K, improved NEVPT2
   Axel Koslowski         : Symmetry handling
   Simone Kossmann        : Meta GGA functionals, TD-DFT gradient, OOMP2, (MP2 Hessian; deprecated post 5.0)
   Lucas Lang             : DCDCAS
   Marvin Lechner         : AUTO-CI (C++ implementation), FIC-MRCC
   Spencer Leger          : CASSCF response
   Dagmar Lenk            : GEPOL surface, SMD, ORCA-2-JSON
   Dimitrios Liakos       : Extrapolation schemes; Compound Job, initial MDCI parallelization
   Dimitrios Manganas     : Further ROCIS development; embedding schemes. LFT, Crystal Embedding
   Dimitrios Pantazis     : SARC Basis sets
   Anastasios Papadopoulos: AUTO-CI, single reference methods and gradients
   Taras Petrenko         : pre 6.0 DFT Hessian and TD-DFT gradient, (ASA, deprecated), ECA, 1-Electron XAS/XES, NRVS
   Peter Pinski           : DLPNO-MP2, DLPNO-MP2 Gradient
   Christoph Reimann      : Effective Core Potentials
   Marius Retegan         : Local ZFS, SOC
   Christoph Riplinger    : Optimizer, TS searches, QM/MM, DLPNO-CCSD(T), (RO)-DLPNO pert. Triples
   Michael Roemelt        : Original ROCIS implementation
   Masaaki Saitow         : Open-shell DLPNO-CCSD energy and density
   Barbara Sandhoefer     : DKH picture change effects
   Kantharuban Sivalingam : CASSCF convergence/infrastructure, NEVPT2 and variants, FIC-MRCI
   Bernardo de Souza      : ESD, SOC TD-DFT
   Georgi Stoychev        : AutoAux, RI-MP2 NMR, DLPNO-MP2 response, X2C
   Van Anh Tran           : RI-MP2 g-tensors
   Willem Van den Heuvel  : Paramagnetic NMR
   Zikuan Wang            : NOTCH, Electric field optimization 
   Frank Wennmohs         : Technical directorship and infrastructure
   Hang Xu                : AUTO-CI-Response properties 


 We gratefully acknowledge several colleagues who have allowed us to
 interface, adapt or use parts of their codes:
   Stefan Grimme, W. Hujo, H. Kruse, P. Pracht,  : VdW corrections, initial TS optimization,
                  C. Bannwarth, S. Ehlert,         DFT functionals, gCP, sTDA/sTD-DF
                  L. Wittmann, M. Mueller
   Ed Valeev, F. Pavosevic, A. Kumar             : LibInt (2-el integral package), F12 methods
   Garnet Chan, S. Sharma, J. Yang, R. Olivares  : DMRG
   Ulf Ekstrom                                   : XCFun DFT Library
   Mihaly Kallay                                 : mrcc  (arbitrary order and MRCC methods)
   Frank Weinhold                                : gennbo (NPA and NBO analysis)
   Simon Mueller                                 : openCOSMO-RS
   Christopher J. Cramer and Donald G. Truhlar   : smd solvation model
   Lars Goerigk                                  : TD-DFT with DH, B97 family of functionals
   V. Asgeirsson, H. Jonsson                     : NEB implementation
   FAccTs GmbH                                   : IRC, NEB, NEB-TS, DLPNO-Multilevel, CI-OPT
                                                   MM, QMMM, 2- and 3-layer-ONIOM, Crystal-QMMM,
                                                   LR-CPCM, SF, NACMEs, symmetry and pop. for TD-DFT,
                                                   nearIR, NL-DFT gradient (VV10), updates on ESD,
                                                   ML-optimized integration grids, MBIS, APM,
                                                   GOAT, DOCKER, SOLVATOR, interface openCOSMO-RS
   S Lehtola, MJT Oliveira, MAL Marques          : LibXC Library
   Liviu Ungur et al                             : ANISO software


 Your calculation uses the libint2 library for the computation of 2-el integrals
 For citations please refer to: http://libint.valeyev.net

 Your ORCA version has been built with support for libXC version: 6.2.2
 For citations please refer to: https://libxc.gitlab.io

 This ORCA versions uses:
   CBLAS   interface :  Fast vector & matrix operations
   LAPACKE interface :  Fast linear algebra routines
   SCALAPACK package :  Parallel linear algebra routines
   Shared memory     :  Shared parallel matrices
   BLAS/LAPACK       :  OpenBLAS 0.3.27  USE64BITINT DYNAMIC_ARCH NO_AFFINITY Zen SINGLE_THREADED
        Core in use  :  Zen
   Copyright (c) 2011-2014, The OpenBLAS Project


Your calculation utilizes the atom-pairwise dispersion correction
with the Becke-Johnson damping scheme (D3BJ)


Warning: RI is on but no J-basis has been assigned. Assigning Def2/J (nothing to worry about!)
================================================================================

----- Orbital basis set information -----
Your calculation utilizes the basis: def2-TZVPPD
   F. Weigend and R. Ahlrichs, Phys. Chem. Chem. Phys. 7, 3297 (2005).
   D. Rappoport and F. Furche, J. Chem. Phys. 133, 134105 (2010)
   D. Rappoport, J. Chem. Phys. 155, 124102 (2021).

----- AuxJ basis set information -----
Your calculation utilizes the auxiliary basis: def2/J
   F. Weigend, Phys. Chem. Chem. Phys. 8, 1057 (2006).

================================================================================
                                        WARNINGS
                       Please study these warnings very carefully!
================================================================================

Using LibXC functional ID 531 : wB97M-V exchange-correlation functional
[ 1]  N. Mardirossian and M. Head-Gordon.,  J. Chem. Phys. 144, 214110 (2016)
Using LibXC functional ID 531 : wB97M-V exchange-correlation functional
[ 1]  N. Mardirossian and M. Head-Gordon.,  J. Chem. Phys. 144, 214110 (2016)

WARNING: B97M-V or wB97M-V functional requested.
  ===> : libXC variant has now been activated.
         Any manually given DFX/HFX/RangeSep scaling parameters are IGNORED!

Your calculation utilizes LibXC
 by S Lehtola, C Steigemann, MJT Oliveira & MAL Marques
Please cite in your paper:
 S Lehtola, C Steigemann, MJT Oliveira & MAL Marques, SoftwareX, 7, (2018), 1.
   


WARNING: your system is open-shell and RHF/RKS was chosen
  ===> : WILL SWITCH to UHF/UKS

INFO   : Checking CIS options ...

WARNING: CIS/ROCIS methods need fully converged wavefunctions
  ===> : Setting SCFConvForced true
         You can overwrite this default with %scf ConvForced false 


================================================================================
                                       INPUT FILE
================================================================================
NAME = orca.inp
|  1> ! Engrad def2-TZVPPD wB97M-D3BJ 
|  2> %pal nprocs 8 end%pal nprocs 64 end 
|  3> %tddft Nroots 2 Iroot 1 
|  4> sf true 
|  5> end 
|  6> *xyz 0 3 
|  7> O   3.61899157 0.34862536 -0.38015542
|  8> O   -1.24887473 1.23192742 -2.61582073
|  9> O   0.50966985 -2.78614587 -0.77237154
| 10> O   -3.0438462 -1.72198913 0.2221601
| 11> N   0.30681421 -1.33465924 0.94598716
| 12> N   -2.00972439 0.15050492 1.1268822
| 13> N   1.71569619 -0.85789526 -0.85191812
| 14> N   -1.78708292 -0.35884533 -1.11073563
| 15> C   1.85785136 0.46859681 1.1710244
| 16> C   -0.90606661 1.67390764 -0.31700232
| 17> C   0.43110106 0.002777 1.43938139
| 18> C   -0.80106758 0.96735014 1.01587785
| 19> C   2.67180105 1.04377335 2.25039729
| 20> C   -0.9659216 3.14421627 -0.41004546
| 21> C   2.48889343 -0.00723989 -0.02347223
| 22> C   -1.25948358 0.85341842 -1.46914502
| 23> C   0.81398771 -1.72191298 -0.27800896
| 24> C   -2.35301224 -0.72627719 0.11082122
| 25> H   0.3861581 -0.01652005 2.53963283
| 26> H   -0.77779134 1.73888518 1.78274935
| 27> H   3.72846723 1.08048227 1.91823329
| 28> H   2.39082708 2.03967393 2.61808671
| 29> H   2.73839651 0.33415311 3.07129211
| 30> H   -1.94178863 3.45487399 -0.01177543
| 31> H   -0.19667872 3.61069047 0.18980437
| 32> H   -0.86916159 3.43938279 -1.43621223
| 33> H   -0.4254357 -1.93296356 1.28353228
| 34> H   -2.2967524 -0.12481782 2.03023841
| 35> H   2.21377113 -1.17354411 -1.67352685
| 36> H   -2.02003943 -0.99107073 -1.89603941
| 37> *
| 38> 
| 39>                          ****END OF INPUT****
================================================================================

                     *******************************
                     * Energy+Gradient Calculation *
                     *******************************

---------------------------------
CARTESIAN COORDINATES (ANGSTROEM)
---------------------------------
  O      3.618992    0.348625   -0.380155
  O     -1.248875    1.231927   -2.615821
  O      0.509670   -2.786146   -0.772372
  O     -3.043846   -1.721989    0.222160
  N      0.306814   -1.334659    0.945987
  N     -2.009724    0.150505    1.126882
  N      1.715696   -0.857895   -0.851918
  N     -1.787083   -0.358845   -1.110736
  C      1.857851    0.468597    1.171024
  C     -0.906067    1.673908   -0.317002
  C      0.431101    0.002777    1.439381
  C     -0.801068    0.967350    1.015878
  C      2.671801    1.043773    2.250397
  C     -0.965922    3.144216   -0.410045
  C      2.488893   -0.007240   -0.023472
  C     -1.259484    0.853418   -1.469145
  C      0.813988   -1.721913   -0.278009
  C     -2.353012   -0.726277    0.110821
  H      0.386158   -0.016520    2.539633
  H     -0.777791    1.738885    1.782749
  H      3.728467    1.080482    1.918233
  H      2.390827    2.039674    2.618087
  H      2.738397    0.334153    3.071292
  H     -1.941789    3.454874   -0.011775
  H     -0.196679    3.610690    0.189804
  H     -0.869162    3.439383   -1.436212
  H     -0.425436   -1.932964    1.283532
  H     -2.296752   -0.124818    2.030238
  H      2.213771   -1.173544   -1.673527
  H     -2.020039   -0.991071   -1.896039

----------------------------
CARTESIAN COORDINATES (A.U.)
----------------------------
  NO LB      ZA    FRAG     MASS         X           Y           Z
   0 O     8.0000    0    15.999    6.838903    0.658806   -0.718390
   1 O     8.0000    0    15.999   -2.360031    2.328005   -4.943185
   2 O     8.0000    0    15.999    0.963136   -5.265053   -1.459571
   3 O     8.0000    0    15.999   -5.752036   -3.254088    0.419822
   4 N     7.0000    0    14.007    0.579795   -2.522140    1.787657
   5 N     7.0000    0    14.007   -3.797829    0.284413    2.129499
   6 N     7.0000    0    14.007    3.242196   -1.621187   -1.609892
   7 N     7.0000    0    14.007   -3.377097   -0.678119   -2.098986
   8 C     6.0000    0    12.011    3.510830    0.885520    2.212915
   9 C     6.0000    0    12.011   -1.712218    3.163227   -0.599048
  10 C     6.0000    0    12.011    0.814663    0.005248    2.720037
  11 C     6.0000    0    12.011   -1.513798    1.828027    1.919731
  12 C     6.0000    0    12.011    5.048972    1.972446    4.252635
  13 C     6.0000    0    12.011   -1.825327    5.941708   -0.774874
  14 C     6.0000    0    12.011    4.703327   -0.013681   -0.044356
  15 C     6.0000    0    12.011   -2.380079    1.612727   -2.776282
  16 C     6.0000    0    12.011    1.538214   -3.253944   -0.525361
  17 C     6.0000    0    12.011   -4.446549   -1.372465    0.209422
  18 H     1.0000    0     1.008    0.729733   -0.031218    4.799211
  19 H     1.0000    0     1.008   -1.469813    3.286017    3.368908
  20 H     1.0000    0     1.008    7.045782    2.041816    3.624936
  21 H     1.0000    0     1.008    4.518008    3.854425    4.947467
  22 H     1.0000    0     1.008    5.174819    0.631458    5.803901
  23 H     1.0000    0     1.008   -3.669449    6.528766   -0.022252
  24 H     1.0000    0     1.008   -0.371669    6.823216    0.358678
  25 H     1.0000    0     1.008   -1.642477    6.499492   -2.714048
  26 H     1.0000    0     1.008   -0.803957   -3.652772    2.425524
  27 H     1.0000    0     1.008   -4.340233   -0.235871    3.836595
  28 H     1.0000    0     1.008    4.183421   -2.217677   -3.162507
  29 H     1.0000    0     1.008   -3.817321   -1.872852   -3.582995

--------------------------------
INTERNAL COORDINATES (ANGSTROEM)
--------------------------------
 O      0   0   0     0.000000000000     0.00000000     0.00000000
 O      1   0   0     5.429046345558     0.00000000     0.00000000
 O      1   2   0     4.432663500390    56.61060008     0.00000000
 O      3   1   2     3.840442561458   115.47877380   314.82509178
 N      3   1   2     2.258477467148    62.68885733   279.64423221
 N      4   3   1     2.322533953128    84.96791446   347.88184484
 N      3   1   2     2.275736717226    14.56593511     2.89001432
 N      2   1   3     2.255106905707    79.88552502    31.09499581
 C      1   2   3     2.349929110009    65.89203642   285.71364160
 C      8   2   1     2.353356526949    61.73478714    61.23994058
 C      5   3   1     1.430951006620   148.78445649    38.57200818
 C      6   4   3     1.463013794711   142.03909995    23.90208838
 C      9   1   2     1.469145324903    95.14880694   211.84393251
 C     10   8   2     1.474465026096   145.57352030    46.10569484
 C      1   2   3     1.237329697460    49.19955207   316.56389104
 C      2   1   3     1.207578897912    64.26887530    59.41297195
 C      3   1   2     1.212268684977    33.59079795   296.79514987
 C      4   3   1     1.217000482312    71.20240818    13.75605845
 H     11   5   3     1.101338039393   108.93774714   194.33334881
 H     12   6   4     1.088071688267   111.10639291   184.80170146
 H     13   9   1     1.108252626281   108.72383076   354.89885292
 H     13   9   1     1.098162031142   117.34106326   118.18388191
 H     13   9   1     1.087135753167   109.46031030   245.50799027
 H     14  10   8     1.098837429301   107.16341189    67.18698569
 H     14  10   8     1.081273603787   111.48814856   185.14905430
 H     14  10   8     1.072149249832   109.34530306   307.46454554
 H      5   3   1     1.004039191497    86.46373794   189.39300806
 H      6   4   3     0.987036033705    90.12307346   244.49197907
 H      7   3  17     1.011312883125    91.42907046   174.28960787
 H      8   2   1     1.034736545619    88.75149276   245.30749918

---------------------------
INTERNAL COORDINATES (A.U.)
---------------------------
 O      0   0   0     0.000000000000     0.00000000     0.00000000
 O      1   0   0    10.259410761470     0.00000000     0.00000000
 O      1   2   0     8.376520059565    56.61060008     0.00000000
 O      3   1   2     7.257384674210   115.47877380   314.82509178
 N      3   1   2     4.267903892541    62.68885733   279.64423221
 N      4   3   1     4.388953108145    84.96791446   347.88184484
 N      3   1   2     4.300519148465    14.56593511     2.89001432
 N      2   1   3     4.261534454501    79.88552502    31.09499581
 C      1   2   3     4.440722452047    65.89203642   285.71364160
 C      8   2   1     4.447199331410    61.73478714    61.23994058
 C      5   3   1     2.704105513570   148.78445649    38.57200818
 C      6   4   3     2.764695402153   142.03909995    23.90208838
 C      9   1   2     2.776282314997    95.14880694   211.84393251
 C     10   8   2     2.786335093367   145.57352030    46.10569484
 C      1   2   3     2.338214265568    49.19955207   316.56389104
 C      2   1   3     2.281993402157    64.26887530    59.41297195
 C      3   1   2     2.290855815336    33.59079795   296.79514987
 C      4   3   1     2.299797616420    71.20240818    13.75605845
 H     11   5   3     2.081227275323   108.93774714   194.33334881
 H     12   6   4     2.056157504898   111.10639291   184.80170146
 H     13   9   1     2.094293950871   108.72383076   354.89885292
 H     13   9   1     2.075225489529   117.34106326   118.18388191
 H     13   9   1     2.054388843879   109.46031030   245.50799027
 H     14  10   8     2.076501807081   107.16341189    67.18698569
 H     14  10   8     2.043310986996   111.48814856   185.14905430
 H     14  10   8     2.026068456872   109.34530306   307.46454554
 H      5   3   1     1.897359099653    86.46373794   189.39300806
 H      6   4   3     1.865227788013    90.12307346   244.49197907
 H      7   3  17     1.911104384813    91.42907046   174.28960787
 H      8   2   1     1.955368691979    88.75149276   245.30749918

---------------------
BASIS SET INFORMATION
---------------------
There are 4 groups of distinct atoms

 Group   1 Type O   : 12s7p3d1f contracted to 6s4p3d1f pattern {621111/4111/111/1}
 Group   2 Type N   : 12s6p3d1f contracted to 6s3p3d1f pattern {621111/411/111/1}
 Group   3 Type C   : 12s6p3d1f contracted to 6s3p3d1f pattern {621111/411/111/1}
 Group   4 Type H   : 5s3p1d contracted to 3s3p1d pattern {311/111/1}

Atom   0O    basis set group =>   1
Atom   1O    basis set group =>   1
Atom   2O    basis set group =>   1
Atom   3O    basis set group =>   1
Atom   4N    basis set group =>   2
Atom   5N    basis set group =>   2
Atom   6N    basis set group =>   2
Atom   7N    basis set group =>   2
Atom   8C    basis set group =>   3
Atom   9C    basis set group =>   3
Atom  10C    basis set group =>   3
Atom  11C    basis set group =>   3
Atom  12C    basis set group =>   3
Atom  13C    basis set group =>   3
Atom  14C    basis set group =>   3
Atom  15C    basis set group =>   3
Atom  16C    basis set group =>   3
Atom  17C    basis set group =>   3
Atom  18H    basis set group =>   4
Atom  19H    basis set group =>   4
Atom  20H    basis set group =>   4
Atom  21H    basis set group =>   4
Atom  22H    basis set group =>   4
Atom  23H    basis set group =>   4
Atom  24H    basis set group =>   4
Atom  25H    basis set group =>   4
Atom  26H    basis set group =>   4
Atom  27H    basis set group =>   4
Atom  28H    basis set group =>   4
Atom  29H    basis set group =>   4
---------------------------------
AUXILIARY/J BASIS SET INFORMATION
---------------------------------
There are 4 groups of distinct atoms

 Group   1 Type O   : 12s5p4d2f1g contracted to 6s4p3d1f1g pattern {711111/2111/211/2/1}
 Group   2 Type N   : 12s5p4d2f1g contracted to 6s4p3d1f1g pattern {711111/2111/211/2/1}
 Group   3 Type C   : 12s5p4d2f1g contracted to 6s4p3d1f1g pattern {711111/2111/211/2/1}
 Group   4 Type H   : 5s2p1d contracted to 3s1p1d pattern {311/2/1}

Atom   0O    basis set group =>   1
Atom   1O    basis set group =>   1
Atom   2O    basis set group =>   1
Atom   3O    basis set group =>   1
Atom   4N    basis set group =>   2
Atom   5N    basis set group =>   2
Atom   6N    basis set group =>   2
Atom   7N    basis set group =>   2
Atom   8C    basis set group =>   3
Atom   9C    basis set group =>   3
Atom  10C    basis set group =>   3
Atom  11C    basis set group =>   3
Atom  12C    basis set group =>   3
Atom  13C    basis set group =>   3
Atom  14C    basis set group =>   3
Atom  15C    basis set group =>   3
Atom  16C    basis set group =>   3
Atom  17C    basis set group =>   3
Atom  18H    basis set group =>   4
Atom  19H    basis set group =>   4
Atom  20H    basis set group =>   4
Atom  21H    basis set group =>   4
Atom  22H    basis set group =>   4
Atom  23H    basis set group =>   4
Atom  24H    basis set group =>   4
Atom  25H    basis set group =>   4
Atom  26H    basis set group =>   4
Atom  27H    basis set group =>   4
Atom  28H    basis set group =>   4
Atom  29H    basis set group =>   4
[1739881279.976835] [ohm:57354:0]        ib_iface.c:1059 UCX  ERROR ibv_create_cq(cqe=256) failed: Connection timed out
[1739881280.013130] [ohm:57362:0]        ib_iface.c:1059 UCX  ERROR ibv_create_cq(cqe=256) failed: Connection timed out
[1739881280.014341] [ohm:57353:0]        ib_iface.c:1059 UCX  ERROR ibv_create_cq(cqe=256) failed: Connection timed out
[1739881280.016993] [ohm:57355:0]        ib_iface.c:1059 UCX  ERROR ibv_create_cq(cqe=256) failed: Connection timed out
[1739881280.022168] [ohm:57357:0]        ib_iface.c:1059 UCX  ERROR ibv_create_cq(cqe=256) failed: Connection timed out
[1739881280.081991] [ohm:57359:0]        ib_iface.c:1059 UCX  ERROR ibv_create_cq(cqe=256) failed: Connection timed out
[1739881280.084767] [ohm:57367:0]        ib_iface.c:1059 UCX  ERROR ibv_create_cq(cqe=256) failed: Connection timed out
[1739881280.084762] [ohm:57352:0]        ib_iface.c:1059 UCX  ERROR ibv_create_cq(cqe=256) failed: Connection timed out
[1739881280.108598] [ohm:57363:0]        ib_iface.c:1059 UCX  ERROR ibv_create_cq(cqe=256) failed: Connection timed out
[1739881280.118617] [ohm:57375:0]        ib_iface.c:1059 UCX  ERROR ibv_create_cq(cqe=256) failed: Connection timed out
[1739881280.123651] [ohm:57364:0]        ib_iface.c:1059 UCX  ERROR ibv_create_cq(cqe=256) failed: Connection timed out
[1739881280.132346] [ohm:57384:0]        ib_iface.c:1059 UCX  ERROR ibv_create_cq(cqe=256) failed: Connection timed out
[1739881280.145104] [ohm:57356:0]        ib_iface.c:1059 UCX  ERROR ibv_create_cq(cqe=256) failed: Connection timed out
[1739881280.148317] [ohm:57377:0]        ib_iface.c:1059 UCX  ERROR ibv_create_cq(cqe=256) failed: Connection timed out
[1739881280.163819] [ohm:57503:0]        ib_iface.c:1059 UCX  ERROR ibv_create_cq(cqe=256) failed: Connection timed out
[1739881280.170277] [ohm:57374:0]        ib_iface.c:1059 UCX  ERROR ibv_create_cq(cqe=256) failed: Connection timed out
[1739881280.174648] [ohm:57372:0]        ib_iface.c:1059 UCX  ERROR ibv_create_cq(cqe=256) failed: Connection timed out
[1739881280.177917] [ohm:57373:0]        ib_iface.c:1059 UCX  ERROR ibv_create_cq(cqe=256) failed: Connection timed out
[1739881280.187178] [ohm:57369:0]        ib_iface.c:1059 UCX  ERROR ibv_create_cq(cqe=256) failed: Connection timed out
[1739881280.196641] [ohm:57422:0]        ib_iface.c:1059 UCX  ERROR ibv_create_cq(cqe=256) failed: Connection timed out
[1739881280.197057] [ohm:57360:0]        ib_iface.c:1059 UCX  ERROR ibv_create_cq(cqe=256) failed: Connection timed out
[1739881280.200859] [ohm:57358:0]        ib_iface.c:1059 UCX  ERROR ibv_create_cq(cqe=256) failed: Connection timed out
[1739881280.244652] [ohm:57415:0]        ib_iface.c:1059 UCX  ERROR ibv_create_cq(cqe=256) failed: Connection timed out
[1739881280.248683] [ohm:57451:0]        ib_iface.c:1059 UCX  ERROR ibv_create_cq(cqe=256) failed: Connection timed out
[1739881280.252978] [ohm:57428:0]        ib_iface.c:1059 UCX  ERROR ibv_create_cq(cqe=256) failed: Connection timed out
[1739881280.253483] [ohm:57433:0]        ib_iface.c:1059 UCX  ERROR ibv_create_cq(cqe=256) failed: Connection timed out
[1739881280.259314] [ohm:57441:0]        ib_iface.c:1059 UCX  ERROR ibv_create_cq(cqe=256) failed: Connection timed out
[1739881280.286382] [ohm:57395:0]        ib_iface.c:1059 UCX  ERROR ibv_create_cq(cqe=256) failed: Connection timed out
[1739881280.305424] [ohm:57368:0]        ib_iface.c:1059 UCX  ERROR ibv_create_cq(cqe=256) failed: Connection timed out
[1739881280.313421] [ohm:57361:0]        ib_iface.c:1059 UCX  ERROR ibv_create_cq(cqe=256) failed: Connection timed out
[1739881280.313724] [ohm:57469:0]        ib_iface.c:1059 UCX  ERROR ibv_create_cq(cqe=256) failed: Connection timed out
[1739881280.319627] [ohm:57398:0]        ib_iface.c:1059 UCX  ERROR ibv_create_cq(cqe=256) failed: Connection timed out
[1739881280.321159] [ohm:57407:0]        ib_iface.c:1059 UCX  ERROR ibv_create_cq(cqe=256) failed: Connection timed out
[1739881280.321858] [ohm:57401:0]        ib_iface.c:1059 UCX  ERROR ibv_create_cq(cqe=256) failed: Connection timed out
[1739881280.322418] [ohm:57483:0]        ib_iface.c:1059 UCX  ERROR ibv_create_cq(cqe=256) failed: Connection timed out
[1739881280.324311] [ohm:57370:0]        ib_iface.c:1059 UCX  ERROR ibv_create_cq(cqe=256) failed: Connection timed out
[1739881280.327709] [ohm:57417:0]        ib_iface.c:1059 UCX  ERROR ibv_create_cq(cqe=256) failed: Connection timed out
[1739881280.330438] [ohm:57386:0]        ib_iface.c:1059 UCX  ERROR ibv_create_cq(cqe=256) failed: Connection timed out
[1739881280.330866] [ohm:57365:0]        ib_iface.c:1059 UCX  ERROR ibv_create_cq(cqe=256) failed: Connection timed out
[1739881280.331663] [ohm:57475:0]        ib_iface.c:1059 UCX  ERROR ibv_create_cq(cqe=256) failed: Connection timed out
[1739881280.333773] [ohm:57389:0]        ib_iface.c:1059 UCX  ERROR ibv_create_cq(cqe=256) failed: Connection timed out
[1739881280.341235] [ohm:57379:0]        ib_iface.c:1059 UCX  ERROR ibv_create_cq(cqe=256) failed: Connection timed out
[1739881280.344559] [ohm:57465:0]        ib_iface.c:1059 UCX  ERROR ibv_create_cq(cqe=256) failed: Connection timed out
[1739881280.347175] [ohm:57408:0]        ib_iface.c:1059 UCX  ERROR ibv_create_cq(cqe=256) failed: Connection timed out
[1739881280.351575] [ohm:57378:0]        ib_iface.c:1059 UCX  ERROR ibv_create_cq(cqe=256) failed: Connection timed out
[1739881280.367767] [ohm:57439:0]        ib_iface.c:1059 UCX  ERROR ibv_create_cq(cqe=256) failed: Connection timed out
[1739881280.368271] [ohm:57435:0]        ib_iface.c:1059 UCX  ERROR ibv_create_cq(cqe=256) failed: Connection timed out
[1739881280.371091] [ohm:57498:0]        ib_iface.c:1059 UCX  ERROR ibv_create_cq(cqe=256) failed: Connection timed out
[1739881280.372019] [ohm:57430:0]        ib_iface.c:1059 UCX  ERROR ibv_create_cq(cqe=256) failed: Connection timed out
[1739881280.377726] [ohm:57444:0]        ib_iface.c:1059 UCX  ERROR ibv_create_cq(cqe=256) failed: Connection timed out
[1739881280.378169] [ohm:57380:0]        ib_iface.c:1059 UCX  ERROR ibv_create_cq(cqe=256) failed: Connection timed out
[1739881280.379792] [ohm:57371:0]        ib_iface.c:1059 UCX  ERROR ibv_create_cq(cqe=256) failed: Connection timed out
[1739881280.380633] [ohm:57477:0]        ib_iface.c:1059 UCX  ERROR ibv_create_cq(cqe=256) failed: Connection timed out
[1739881280.383126] [ohm:57459:0]        ib_iface.c:1059 UCX  ERROR ibv_create_cq(cqe=256) failed: Connection timed out
[1739881280.385502] [ohm:57376:0]        ib_iface.c:1059 UCX  ERROR ibv_create_cq(cqe=256) failed: Connection timed out
[1739881280.389970] [ohm:57480:0]        ib_iface.c:1059 UCX  ERROR ibv_create_cq(cqe=256) failed: Connection timed out
[1739881280.390022] [ohm:57472:0]        ib_iface.c:1059 UCX  ERROR ibv_create_cq(cqe=256) failed: Connection timed out
[1739881280.390581] [ohm:57493:0]        ib_iface.c:1059 UCX  ERROR ibv_create_cq(cqe=256) failed: Connection timed out
[1739881280.392016] [ohm:57424:0]        ib_iface.c:1059 UCX  ERROR ibv_create_cq(cqe=256) failed: Connection timed out
[1739881280.392826] [ohm:57487:0]        ib_iface.c:1059 UCX  ERROR ibv_create_cq(cqe=256) failed: Connection timed out
[1739881280.396049] [ohm:57463:0]        ib_iface.c:1059 UCX  ERROR ibv_create_cq(cqe=256) failed: Connection timed out
[1739881280.396599] [ohm:57366:0]        ib_iface.c:1059 UCX  ERROR ibv_create_cq(cqe=256) failed: Connection timed out
[1739881280.396835] [ohm:57448:0]        ib_iface.c:1059 UCX  ERROR ibv_create_cq(cqe=256) failed: Connection timed out
[1739881280.397729] [ohm:57454:0]        ib_iface.c:1059 UCX  ERROR ibv_create_cq(cqe=256) failed: Connection timed out


           ************************************************************
           *        Program running with 64 parallel MPI-processes    *
           *              working on a common directory               *
           ************************************************************
------------------------------------------------------------------------------
                             ORCA STARTUP CALCULATIONS
                           -- RI-GTO INTEGRALS CHOSEN --
------------------------------------------------------------------------------
------------------------------------------------------------------------------
                   ___                                                        
                  /   \      - P O W E R E D   B Y -                         
                 /     \                                                     
                 |  |  |   _    _      __       _____    __    __             
                 |  |  |  | |  | |    /  \     |  _  \  |  |  /  |          
                  \  \/   | |  | |   /    \    | | | |  |  | /  /          
                 / \  \   | |__| |  /  /\  \   | |_| |  |  |/  /          
                |  |  |   |  __  | /  /__\  \  |    /   |      \           
                |  |  |   | |  | | |   __   |  |    \   |  |\   \          
                \     /   | |  | | |  |  |  |  | |\  \  |  | \   \       
                 \___/    |_|  |_| |__|  |__|  |_| \__\ |__|  \__/        
                                                                              
                      - O R C A' S   B I G   F R I E N D -                    
                                      &                                       
                       - I N T E G R A L  F E E D E R -                       
                                                                              
 v1 FN, 2020, v2 2021, v3 2022-2024                                           
------------------------------------------------------------------------------


----------------------
SHARK INTEGRAL PACKAGE
----------------------

Number of atoms                             ...     30
Number of basis functions                   ...    882
Number of shells                            ...    322
Maximum angular momentum                    ...      3
Integral batch strategy                     ... SHARK/LIBINT Hybrid
RI-J (if used) integral strategy            ... SPLIT-RIJ (Revised 2003 algorithm where possible)
Printlevel                                  ...      1
Contraction scheme used                     ... SEGMENTED contraction
Prescreening option                         ... SCHWARTZ
   Thresh                                   ... 2.500e-11
   Tcut                                     ... 2.500e-12
   Tpresel                                  ... 2.500e-12 
Coulomb Range Separation                    ... NOT USED
Exchange Range Separation                   ... Long Range
   Mu parameter                             ... 3.000e-01
   Scaling (regular/separated)              ... 1.500e-01 8.500e-01
Multipole approximations                    ... NOT USED
Finite Nucleus Model                        ... NOT USED
CABS basis                                  ... NOT available
Auxiliary Coulomb fitting basis             ... AVAILABLE
   # of basis functions in Aux-J            ...   1014
   # of shells in Aux-J                     ...    330
   Maximum angular momentum in Aux-J        ...      4
Auxiliary J/K fitting basis                 ... NOT available
Auxiliary Correlation fitting basis         ... NOT available
Auxiliary 'external' fitting basis          ... NOT available

Checking pre-screening integrals            ... done (  0.0 sec) Dimension = 322
Check shell pair data                       ... done (  0.0 sec)
Shell pair information
Shell pair cut-off parameter TPreSel        ...   2.5e-12
Total number of shell pairs                 ...     52003
Shell pairs after pre-screening             ...     44586
Total number of primitive shell pairs       ...    129718
Primitive shell pairs kept                  ...     83195
          la=0 lb=0:   8641 shell pairs
          la=1 lb=0:  11799 shell pairs
          la=1 lb=1:   4074 shell pairs
          la=2 lb=0:   8023 shell pairs
          la=2 lb=1:   5532 shell pairs
          la=2 lb=2:   1914 shell pairs
          la=3 lb=0:   2038 shell pairs
          la=3 lb=1:   1448 shell pairs
          la=3 lb=2:    982 shell pairs
          la=3 lb=3:    135 shell pairs

Calculating one electron integrals          ... done (  0.2 sec)
Calculating RI/J V-Matrix + Cholesky decomp.... done (  0.1 sec)
Calculating Nuclear repulsion               ... done (  0.0 sec) ENN=   1432.590784942509 Eh

Diagonalization of the overlap matrix:
Smallest eigenvalue                        ... 6.872e-07
Time for diagonalization                   ...    0.123 sec
Threshold for overlap eigenvalues          ... 1.000e-07
Number of eigenvalues below threshold      ... 0

IMPORTANT:
Smallest eigenvalue of S below the DiffSThresh (1.000e-06) while
Thresh>1e-12 and/or TCut>1e-13! In order to avoid SCF convergence issues,
Thresh will be set to at least 1e-12 and TCut to at least 1e-13.
This can be turned off by adding %SCF DiffSThresh -1 END to the input.

Time for construction of square roots      ...    0.127 sec
Total time needed                          ...    0.267 sec

-------------------
DFT GRID GENERATION
-------------------

General Integration Accuracy     IntAcc      ... 4.388
Radial Grid Type                 RadialGrid  ... OptM3 with GC (2021)
Angular Grid (max. ang.)         AngularGrid ... 4 (Lebedev-302)
Angular grid pruning method      GridPruning ... 4 (adaptive)
Weight generation scheme         WeightScheme... mBecke (2022)
Basis function cutoff            BFCut       ... 1.0000e-11
Integration weight cutoff        WCut        ... 1.0000e-14
Partially contracted basis set               ... off
Rotationally invariant grid construction     ... off
Angular grids for H and He will be reduced by one unit
Diffuse basis detected: some atoms will have their outermost
                        angular grid increased by 1.

Total number of grid points                  ...   152266
Total number of batches                      ...     2393
Average number of points per batch           ...       63
Average number of grid points per atom       ...     5076

--------------------
COSX GRID GENERATION
--------------------

GRIDX 1
-------
General Integration Accuracy     IntAcc      ... 3.816
Radial Grid Type                 RadialGrid  ... OptM3 with GC (2021)
Angular Grid (max. ang.)         AngularGrid ... 1 (Lebedev-50)
Angular grid pruning method      GridPruning ... 4 (adaptive)
Weight generation scheme         WeightScheme... mBecke (2022)
Basis function cutoff            BFCut       ... 1.0000e-11
Integration weight cutoff        WCut        ... 1.0000e-14
Partially contracted basis set               ... on
Rotationally invariant grid construction     ... off
Angular grids for H and He will be reduced by one unit
Diffuse basis detected: some atoms will have their outermost
                        angular grid increased by 1.

Total number of grid points                  ...    19027
Total number of batches                      ...      166
Average number of points per batch           ...      114
Average number of grid points per atom       ...      634
UseSFitting                                  ... on

GRIDX 2
-------
General Integration Accuracy     IntAcc      ... 4.020
Radial Grid Type                 RadialGrid  ... OptM3 with GC (2021)
Angular Grid (max. ang.)         AngularGrid ... 2 (Lebedev-110)
Angular grid pruning method      GridPruning ... 4 (adaptive)
Weight generation scheme         WeightScheme... mBecke (2022)
Basis function cutoff            BFCut       ... 1.0000e-11
Integration weight cutoff        WCut        ... 1.0000e-14
Partially contracted basis set               ... on
Rotationally invariant grid construction     ... off
Angular grids for H and He will be reduced by one unit
Diffuse basis detected: some atoms will have their outermost
                        angular grid increased by 1.

Total number of grid points                  ...    46086
Total number of batches                      ...      375
Average number of points per batch           ...      122
Average number of grid points per atom       ...     1536
UseSFitting                                  ... on

GRIDX 3
-------
General Integration Accuracy     IntAcc      ... 4.338
Radial Grid Type                 RadialGrid  ... OptM3 with GC (2021)
Angular Grid (max. ang.)         AngularGrid ... 3 (Lebedev-194)
Angular grid pruning method      GridPruning ... 4 (adaptive)
Weight generation scheme         WeightScheme... mBecke (2022)
Basis function cutoff            BFCut       ... 1.0000e-11
Integration weight cutoff        WCut        ... 1.0000e-14
Partially contracted basis set               ... on
Rotationally invariant grid construction     ... off
Angular grids for H and He will be reduced by one unit
Diffuse basis detected: some atoms will have their outermost
                        angular grid increased by 1.

Total number of grid points                  ...   101389
Total number of batches                      ...      806
Average number of points per batch           ...      125
Average number of grid points per atom       ...     3380
UseSFitting                                  ... on
Initializing property integral containers    ... done (  0.0 sec)

SHARK setup successfully completed in   4.0 seconds

Maximum memory used throughout the entire STARTUP-calculation: 79.5 MB
[1739881286.298525] [ohm:57743:0]        ib_iface.c:1059 UCX  ERROR ibv_create_cq(cqe=256) failed: Connection timed out
[1739881286.313986] [ohm:57709:0]        ib_iface.c:1059 UCX  ERROR ibv_create_cq(cqe=256) failed: Connection timed out
[1739881286.318161] [ohm:57732:0]        ib_iface.c:1059 UCX  ERROR ibv_create_cq(cqe=256) failed: Connection timed out
[1739881286.333016] [ohm:57711:0]        ib_iface.c:1059 UCX  ERROR ibv_create_cq(cqe=256) failed: Connection timed out
[1739881286.360115] [ohm:57717:0]        ib_iface.c:1059 UCX  ERROR ibv_create_cq(cqe=256) failed: Connection timed out
[1739881286.365413] [ohm:57715:0]        ib_iface.c:1059 UCX  ERROR ibv_create_cq(cqe=256) failed: Connection timed out
[1739881286.366996] [ohm:57721:0]        ib_iface.c:1059 UCX  ERROR ibv_create_cq(cqe=256) failed: Connection timed out
[1739881286.370219] [ohm:57708:0]        ib_iface.c:1059 UCX  ERROR ibv_create_cq(cqe=256) failed: Connection timed out
[1739881286.375474] [ohm:57718:0]        ib_iface.c:1059 UCX  ERROR ibv_create_cq(cqe=256) failed: Connection timed out
[1739881286.383443] [ohm:57744:0]        ib_iface.c:1059 UCX  ERROR ibv_create_cq(cqe=256) failed: Connection timed out
[1739881286.393476] [ohm:57712:0]        ib_iface.c:1059 UCX  ERROR ibv_create_cq(cqe=256) failed: Connection timed out
[1739881286.408110] [ohm:57751:0]        ib_iface.c:1059 UCX  ERROR ibv_create_cq(cqe=256) failed: Connection timed out
[1739881286.412005] [ohm:57818:0]        ib_iface.c:1059 UCX  ERROR ibv_create_cq(cqe=256) failed: Connection timed out
[1739881286.422602] [ohm:57716:0]        ib_iface.c:1059 UCX  ERROR ibv_create_cq(cqe=256) failed: Connection timed out
[1739881286.424502] [ohm:57727:0]        ib_iface.c:1059 UCX  ERROR ibv_create_cq(cqe=256) failed: Connection timed out
[1739881286.427189] [ohm:57816:0]        ib_iface.c:1059 UCX  ERROR ibv_create_cq(cqe=256) failed: Connection timed out
[1739881286.436938] [ohm:57713:0]        ib_iface.c:1059 UCX  ERROR ibv_create_cq(cqe=256) failed: Connection timed out
[1739881286.448020] [ohm:57714:0]        ib_iface.c:1059 UCX  ERROR ibv_create_cq(cqe=256) failed: Connection timed out
[1739881286.452616] [ohm:57828:0]        ib_iface.c:1059 UCX  ERROR ibv_create_cq(cqe=256) failed: Connection timed out
[1739881286.453635] [ohm:57804:0]        ib_iface.c:1059 UCX  ERROR ibv_create_cq(cqe=256) failed: Connection timed out
[1739881286.467649] [ohm:57857:0]        ib_iface.c:1059 UCX  ERROR ibv_create_cq(cqe=256) failed: Connection timed out
[1739881286.485165] [ohm:57837:0]        ib_iface.c:1059 UCX  ERROR ibv_create_cq(cqe=256) failed: Connection timed out
[1739881286.494225] [ohm:57731:0]        ib_iface.c:1059 UCX  ERROR ibv_create_cq(cqe=256) failed: Connection timed out
[1739881286.499686] [ohm:57767:0]        ib_iface.c:1059 UCX  ERROR ibv_create_cq(cqe=256) failed: Connection timed out
[1739881286.506972] [ohm:57724:0]        ib_iface.c:1059 UCX  ERROR ibv_create_cq(cqe=256) failed: Connection timed out
[1739881286.509258] [ohm:57788:0]        ib_iface.c:1059 UCX  ERROR ibv_create_cq(cqe=256) failed: Connection timed out
[1739881286.525835] [ohm:57844:0]        ib_iface.c:1059 UCX  ERROR ibv_create_cq(cqe=256) failed: Connection timed out
[1739881286.530362] [ohm:57733:0]        ib_iface.c:1059 UCX  ERROR ibv_create_cq(cqe=256) failed: Connection timed out
[1739881286.539705] [ohm:57729:0]        ib_iface.c:1059 UCX  ERROR ibv_create_cq(cqe=256) failed: Connection timed out
[1739881286.541734] [ohm:57735:0]        ib_iface.c:1059 UCX  ERROR ibv_create_cq(cqe=256) failed: Connection timed out
[1739881286.541744] [ohm:57734:0]        ib_iface.c:1059 UCX  ERROR ibv_create_cq(cqe=256) failed: Connection timed out
[1739881286.542846] [ohm:57821:0]        ib_iface.c:1059 UCX  ERROR ibv_create_cq(cqe=256) failed: Connection timed out
[1739881286.543244] [ohm:57850:0]        ib_iface.c:1059 UCX  ERROR ibv_create_cq(cqe=256) failed: Connection timed out
[1739881286.547123] [ohm:57799:0]        ib_iface.c:1059 UCX  ERROR ibv_create_cq(cqe=256) failed: Connection timed out
[1739881286.549951] [ohm:57802:0]        ib_iface.c:1059 UCX  ERROR ibv_create_cq(cqe=256) failed: Connection timed out
[1739881286.556062] [ohm:57722:0]        ib_iface.c:1059 UCX  ERROR ibv_create_cq(cqe=256) failed: Connection timed out
[1739881286.565987] [ohm:57831:0]        ib_iface.c:1059 UCX  ERROR ibv_create_cq(cqe=256) failed: Connection timed out
[1739881286.566737] [ohm:57738:0]        ib_iface.c:1059 UCX  ERROR ibv_create_cq(cqe=256) failed: Connection timed out
[1739881286.576265] [ohm:57736:0]        ib_iface.c:1059 UCX  ERROR ibv_create_cq(cqe=256) failed: Connection timed out
[1739881286.584850] [ohm:57763:0]        ib_iface.c:1059 UCX  ERROR ibv_create_cq(cqe=256) failed: Connection timed out
[1739881286.594476] [ohm:57723:0]        ib_iface.c:1059 UCX  ERROR ibv_create_cq(cqe=256) failed: Connection timed out
[1739881286.601674] [ohm:57811:0]        ib_iface.c:1059 UCX  ERROR ibv_create_cq(cqe=256) failed: Connection timed out
[1739881286.608448] [ohm:57762:0]        ib_iface.c:1059 UCX  ERROR ibv_create_cq(cqe=256) failed: Connection timed out
[1739881286.608574] [ohm:57824:0]        ib_iface.c:1059 UCX  ERROR ibv_create_cq(cqe=256) failed: Connection timed out
[1739881286.610560] [ohm:57710:0]        ib_iface.c:1059 UCX  ERROR ibv_create_cq(cqe=256) failed: Connection timed out
[1739881286.614485] [ohm:57775:0]        ib_iface.c:1059 UCX  ERROR ibv_create_cq(cqe=256) failed: Connection timed out
[1739881286.616897] [ohm:57793:0]        ib_iface.c:1059 UCX  ERROR ibv_create_cq(cqe=256) failed: Connection timed out
[1739881286.620154] [ohm:57812:0]        ib_iface.c:1059 UCX  ERROR ibv_create_cq(cqe=256) failed: Connection timed out
[1739881286.623424] [ohm:57783:0]        ib_iface.c:1059 UCX  ERROR ibv_create_cq(cqe=256) failed: Connection timed out
[1739881286.625516] [ohm:57757:0]        ib_iface.c:1059 UCX  ERROR ibv_create_cq(cqe=256) failed: Connection timed out
[1739881286.629442] [ohm:57726:0]        ib_iface.c:1059 UCX  ERROR ibv_create_cq(cqe=256) failed: Connection timed out
[1739881286.630164] [ohm:57730:0]        ib_iface.c:1059 UCX  ERROR ibv_create_cq(cqe=256) failed: Connection timed out
[1739881286.631894] [ohm:57769:0]        ib_iface.c:1059 UCX  ERROR ibv_create_cq(cqe=256) failed: Connection timed out
[1739881286.635240] [ohm:57779:0]        ib_iface.c:1059 UCX  ERROR ibv_create_cq(cqe=256) failed: Connection timed out
[1739881286.637778] [ohm:57835:0]        ib_iface.c:1059 UCX  ERROR ibv_create_cq(cqe=256) failed: Connection timed out
[1739881286.639372] [ohm:57728:0]        ib_iface.c:1059 UCX  ERROR ibv_create_cq(cqe=256) failed: Connection timed out
[1739881286.643385] [ohm:57772:0]        ib_iface.c:1059 UCX  ERROR ibv_create_cq(cqe=256) failed: Connection timed out
[1739881286.643388] [ohm:57794:0]        ib_iface.c:1059 UCX  ERROR ibv_create_cq(cqe=256) failed: Connection timed out
[1739881286.645498] [ohm:57796:0]        ib_iface.c:1059 UCX  ERROR ibv_create_cq(cqe=256) failed: Connection timed out
[1739881286.645556] [ohm:57720:0]        ib_iface.c:1059 UCX  ERROR ibv_create_cq(cqe=256) failed: Connection timed out
[1739881286.646023] [ohm:57725:0]        ib_iface.c:1059 UCX  ERROR ibv_create_cq(cqe=256) failed: Connection timed out
[1739881286.648713] [ohm:57842:0]        ib_iface.c:1059 UCX  ERROR ibv_create_cq(cqe=256) failed: Connection timed out
[1739881286.649491] [ohm:57755:0]        ib_iface.c:1059 UCX  ERROR ibv_create_cq(cqe=256) failed: Connection timed out
[1739881286.650184] [ohm:57719:0]        ib_iface.c:1059 UCX  ERROR ibv_create_cq(cqe=256) failed: Connection timed out


           ************************************************************
           *        Program running with 64 parallel MPI-processes    *
           *              working on a common directory               *
           ************************************************************
-------------------------------------------------------------------------------
                                 ORCA GUESS
                   Start orbitals & Density for SCF / CASSCF
-------------------------------------------------------------------------------

------------
SCF SETTINGS
------------
Hamiltonian:
 Density Functional     Method          .... DFT(GTOs)
  Functional kind                       .... Exchange-Correlation
  Functional name                       .... wB97M-V exchange-correlation functional
  Functional family                     .... Hybrid MGGA
  Functional refs                              
    [ 0] N. Mardirossian and M. Head-Gordon.,  J. Chem. Phys. 144, 214110 (2016), doi: 10.1063/1.4952647
  Fraction of HF Exchange (short range) .... 0.1500
  Fraction of HF Exchange (long range)  .... 1.0000
  Range separation parameter mu         .... 0.3000
  Functional external parameters        .... 17
    Parameter  0 _cx00      =  8.500000e-01 : u^00 coefficient for exchange
    Parameter  1 _cx01      =  1.007000e+00 : u^01 coefficient for exchange
    Parameter  2 _cx10      =  2.590000e-01 : u^10 coefficient for exchange
    Parameter  3 _css00     =  4.430000e-01 : u^00 coefficient for same-spin correlation
    Parameter  4 _css04     = -1.437000e+00 : u^04 coefficient for same-spin correlation
    Parameter  5 _css10     = -4.535000e+00 : u^10 coefficient for same-spin correlation
    Parameter  6 _css20     = -3.390000e+00 : u^20 coefficient for same-spin correlation
    Parameter  7 _css43     =  4.278000e+00 : u^43 coefficient for same-spin correlation
    Parameter  8 _cos00     =  1.000000e+00 : u^00 coefficient for opposite-spin correlation
    Parameter  9 _cos10     =  1.358000e+00 : u^10 coefficient for opposite-spin correlation
    Parameter 10 _cos20     =  2.924000e+00 : u^20 coefficient for opposite-spin correlation
    Parameter 11 _cos21     = -8.812000e+00 : u^21 coefficient for opposite-spin correlation
    Parameter 12 _cos60     = -1.390000e+00 : u^60 coefficient for opposite-spin correlation
    Parameter 13 _cos61     =  9.142000e+00 : u^61 coefficient for opposite-spin correlation
    Parameter 14 _alpha     =  1.000000e+00 : fraction of HF exchange
    Parameter 15 _beta      = -8.500000e-01 : fraction of short-range exchange
    Parameter 16 _omega     =  3.000000e-01 : range-separation constant
 Long-range corrected/Screened/Range-Separated Hybrid DFT is turned on
   Amount of maximum screened exact exchange              ....  0.850000
   Range separation parameter mu (erf(mu*r12)/r12)        ....  0.300000
 RI-approximation to the Coulomb term is turned on
   Number of AuxJ basis functions       .... 1014
   RIJ-COSX (HFX calculated with COS-X)).... on


General Settings:
 Integral files         IntName         .... orca
 Hartree-Fock type      HFTyp           .... UHF
 Total Charge           Charge          ....    0
 Multiplicity           Mult            ....    3
 Number of Electrons    NEL             ....  132
 Basis Dimension        Dim             ....  882
 Nuclear Repulsion      ENuc            ....   1432.5907849425 Eh

Convergence Acceleration:
 AO-DIIS                CNVDIIS         .... on
   Start iteration      DIISMaxIt       ....    12
   Startup error        DIISStart       ....  0.200000
   # of expansion vecs  DIISMaxEq       ....     5
   Bias factor          DIISBfac        ....   1.050
   Max. coefficient     DIISMaxC        ....  10.000
 MO-DIIS                CNVKDIIS        .... off
 Trust-Rad. Augm. Hess. CNVTRAH         .... auto
   Auto Start mean grad. ratio tolernc. ....  1.125000
   Auto Start start iteration           ....    50
   Auto Start num. interpolation iter.  ....    10
   Max. Number of Micro iterations      ....    24
   Max. Number of Macro iterations      .... Maxiter - #DIIS iter
   Number of Davidson start vectors     ....     2
   Converg. threshold    (grad. norm)   ....   1.000e-05
   Grad. Scal. Fac. for Micro threshold ....   0.100
   Minimum threshold for Micro iter.    ....   1.000e-02
   NR start threshold (gradient norm)   ....   1.000e-04
   Initial trust radius                 ....   0.400
   Minimum AH scaling param. (alpha)    ....   1.000
   Maximum AH scaling param. (alpha)    .... 1000.000
   Quad. conv. algorithm                .... NR
   White noise on init. David. guess    .... on
   Maximum white noise                  ....   0.010
   Pseudo random numbers                .... off
   Inactive MOs                         .... canonical
   Orbital update algorithm             .... Taylor
   Preconditioner                       .... Diag
   Full preconditioner red. dimension   ....   250
 SOSCF                  CNVSOSCF        .... on
   Start iteration      SOSCFMaxIt      ....   150
   Startup grad/error   SOSCFStart      ....  0.003300
   Hessian update       SOSCFHessUp     .... L-BFGS
 Level Shifting         CNVShift        .... on
   Level shift para.    LevelShift      ....    0.2500
   Turn off err/grad.   ShiftErr        ....    0.0010
 Zerner damping         CNVZerner       .... off
 Static damping         CNVDamp         .... on
   Fraction old density DampFac         ....    0.7000
   Max. Damping (<1)    DampMax         ....    0.9800
   Min. Damping (>=0)   DampMin         ....    0.0000
   Turn off err/grad.   DampErr         ....    0.1000

SCF Procedure:
 Maximum # iterations   MaxIter         ....   125
 SCF integral mode      SCFMode         .... Direct
   Integral package                     .... SHARK and LIBINT hybrid scheme
 Reset frequency        DirectResetFreq ....    20
 Integral Threshold     Thresh          ....  1.000e-12 Eh
 Primitive CutOff       TCut            ....  1.000e-13 Eh

Convergence Tolerance:
 Convergence Check Mode ConvCheckMode   .... Total+1el-Energy
 Convergence forced     ConvForced      .... 1
 Energy Change          TolE            ....  1.000e-08 Eh
 1-El. energy change                    ....  1.000e-05 Eh
 Orbital Gradient       TolG            ....  1.000e-05
 Orbital Rotation angle TolX            ....  1.000e-05
 DIIS Error             TolErr          ....  5.000e-07

------------------------------
INITIAL GUESS: MODEL POTENTIAL
------------------------------
Loading Hartree-Fock densities                     ... done
Calculating cut-offs                               ... done
Initializing the effective Hamiltonian             ... done
Setting up the integral package (SHARK)            ... done
Starting the Coulomb interaction                   ... done (   0.1 sec)
Making the grid                                    ... done (   0.2 sec)
Mapping shells                                     ... done
Starting the XC term evaluation                    ... done (   0.1 sec)
  promolecular density results
     # of electrons  =    131.990893382
     EX              =   -113.542477078
     EC              =     -4.489815730
     EX+EC           =   -118.032292808
Transforming the Hamiltonian                       ... done (   0.1 sec)
Diagonalizing the Hamiltonian                      ... done (   0.1 sec)
Back transforming the eigenvectors                 ... done (   0.1 sec)
Now organizing SCF variables                       ... done
                      ------------------
                      INITIAL GUESS DONE (   1.1 sec)
                      ------------------
             **** ENERGY FILE WAS UPDATED (orca.en.tmp) ****
Finished Guess after   3.6 sec
Maximum memory used throughout the entire GUESS-calculation: 72.0 MB
[1739881290.413088] [ohm:58066:0]        ib_iface.c:1059 UCX  ERROR ibv_create_cq(cqe=256) failed: Connection timed out
[1739881290.417644] [ohm:58067:0]        ib_iface.c:1059 UCX  ERROR ibv_create_cq(cqe=256) failed: Connection timed out
[1739881290.487027] [ohm:58075:0]        ib_iface.c:1059 UCX  ERROR ibv_create_cq(cqe=256) failed: Connection timed out
[1739881290.520294] [ohm:58063:0]        ib_iface.c:1059 UCX  ERROR ibv_create_cq(cqe=256) failed: Connection timed out
[1739881290.521821] [ohm:58118:0]        ib_iface.c:1059 UCX  ERROR ibv_create_cq(cqe=256) failed: Connection timed out
[1739881290.522351] [ohm:58072:0]        ib_iface.c:1059 UCX  ERROR ibv_create_cq(cqe=256) failed: Connection timed out
[1739881290.536186] [ohm:58065:0]        ib_iface.c:1059 UCX  ERROR ibv_create_cq(cqe=256) failed: Connection timed out
[1739881290.554184] [ohm:58112:0]        ib_iface.c:1059 UCX  ERROR ibv_create_cq(cqe=256) failed: Connection timed out
[1739881290.563331] [ohm:58107:0]        ib_iface.c:1059 UCX  ERROR ibv_create_cq(cqe=256) failed: Connection timed out
[1739881290.566312] [ohm:58154:0]        ib_iface.c:1059 UCX  ERROR ibv_create_cq(cqe=256) failed: Connection timed out
[1739881290.571800] [ohm:58169:0]        ib_iface.c:1059 UCX  ERROR ibv_create_cq(cqe=256) failed: Connection timed out
[1739881290.573007] [ohm:58126:0]        ib_iface.c:1059 UCX  ERROR ibv_create_cq(cqe=256) failed: Connection timed out
[1739881290.574387] [ohm:58085:0]        ib_iface.c:1059 UCX  ERROR ibv_create_cq(cqe=256) failed: Connection timed out
[1739881290.642130] [ohm:58140:0]        ib_iface.c:1059 UCX  ERROR ibv_create_cq(cqe=256) failed: Connection timed out
[1739881290.649069] [ohm:58174:0]        ib_iface.c:1059 UCX  ERROR ibv_create_cq(cqe=256) failed: Connection timed out
[1739881290.649577] [ohm:58158:0]        ib_iface.c:1059 UCX  ERROR ibv_create_cq(cqe=256) failed: Connection timed out
[1739881290.668950] [ohm:58108:0]        ib_iface.c:1059 UCX  ERROR ibv_create_cq(cqe=256) failed: Connection timed out
[1739881290.672719] [ohm:58161:0]        ib_iface.c:1059 UCX  ERROR ibv_create_cq(cqe=256) failed: Connection timed out
[1739881290.673397] [ohm:58184:0]        ib_iface.c:1059 UCX  ERROR ibv_create_cq(cqe=256) failed: Connection timed out
[1739881290.686703] [ohm:58089:0]        ib_iface.c:1059 UCX  ERROR ibv_create_cq(cqe=256) failed: Connection timed out
[1739881290.692400] [ohm:58064:0]        ib_iface.c:1059 UCX  ERROR ibv_create_cq(cqe=256) failed: Connection timed out
[1739881290.695476] [ohm:58084:0]        ib_iface.c:1059 UCX  ERROR ibv_create_cq(cqe=256) failed: Connection timed out
[1739881290.696929] [ohm:58061:0]        ib_iface.c:1059 UCX  ERROR ibv_create_cq(cqe=256) failed: Connection timed out
[1739881290.716977] [ohm:58165:0]        ib_iface.c:1059 UCX  ERROR ibv_create_cq(cqe=256) failed: Connection timed out
[1739881290.721784] [ohm:58068:0]        ib_iface.c:1059 UCX  ERROR ibv_create_cq(cqe=256) failed: Connection timed out
[1739881290.726151] [ohm:58069:0]        ib_iface.c:1059 UCX  ERROR ibv_create_cq(cqe=256) failed: Connection timed out
[1739881290.741179] [ohm:58172:0]        ib_iface.c:1059 UCX  ERROR ibv_create_cq(cqe=256) failed: Connection timed out
[1739881290.749352] [ohm:58073:0]        ib_iface.c:1059 UCX  ERROR ibv_create_cq(cqe=256) failed: Connection timed out
[1739881290.756430] [ohm:58070:0]        ib_iface.c:1059 UCX  ERROR ibv_create_cq(cqe=256) failed: Connection timed out
[1739881290.770879] [ohm:58149:0]        ib_iface.c:1059 UCX  ERROR ibv_create_cq(cqe=256) failed: Connection timed out
[1739881290.774044] [ohm:58079:0]        ib_iface.c:1059 UCX  ERROR ibv_create_cq(cqe=256) failed: Connection timed out
[1739881290.774963] [ohm:58136:0]        ib_iface.c:1059 UCX  ERROR ibv_create_cq(cqe=256) failed: Connection timed out
[1739881290.784932] [ohm:58143:0]        ib_iface.c:1059 UCX  ERROR ibv_create_cq(cqe=256) failed: Connection timed out
[1739881290.789172] [ohm:58086:0]        ib_iface.c:1059 UCX  ERROR ibv_create_cq(cqe=256) failed: Connection timed out
[1739881290.793900] [ohm:58202:0]        ib_iface.c:1059 UCX  ERROR ibv_create_cq(cqe=256) failed: Connection timed out
[1739881290.794516] [ohm:58071:0]        ib_iface.c:1059 UCX  ERROR ibv_create_cq(cqe=256) failed: Connection timed out
[1739881290.803154] [ohm:58103:0]        ib_iface.c:1059 UCX  ERROR ibv_create_cq(cqe=256) failed: Connection timed out
[1739881290.804128] [ohm:58153:0]        ib_iface.c:1059 UCX  ERROR ibv_create_cq(cqe=256) failed: Connection timed out
[1739881290.804186] [ohm:58095:0]        ib_iface.c:1059 UCX  ERROR ibv_create_cq(cqe=256) failed: Connection timed out
[1739881290.805812] [ohm:58116:0]        ib_iface.c:1059 UCX  ERROR ibv_create_cq(cqe=256) failed: Connection timed out
[1739881290.809160] [ohm:58193:0]        ib_iface.c:1059 UCX  ERROR ibv_create_cq(cqe=256) failed: Connection timed out
[1739881290.810044] [ohm:58208:0]        ib_iface.c:1059 UCX  ERROR ibv_create_cq(cqe=256) failed: Connection timed out
[1739881290.811612] [ohm:58147:0]        ib_iface.c:1059 UCX  ERROR ibv_create_cq(cqe=256) failed: Connection timed out
[1739881290.816559] [ohm:58187:0]        ib_iface.c:1059 UCX  ERROR ibv_create_cq(cqe=256) failed: Connection timed out
[1739881290.824308] [ohm:58076:0]        ib_iface.c:1059 UCX  ERROR ibv_create_cq(cqe=256) failed: Connection timed out
[1739881290.826928] [ohm:58077:0]        ib_iface.c:1059 UCX  ERROR ibv_create_cq(cqe=256) failed: Connection timed out
[1739881290.832467] [ohm:58074:0]        ib_iface.c:1059 UCX  ERROR ibv_create_cq(cqe=256) failed: Connection timed out
[1739881290.833936] [ohm:58062:0]        ib_iface.c:1059 UCX  ERROR ibv_create_cq(cqe=256) failed: Connection timed out
[1739881290.834684] [ohm:58099:0]        ib_iface.c:1059 UCX  ERROR ibv_create_cq(cqe=256) failed: Connection timed out
[1739881290.838002] [ohm:58113:0]        ib_iface.c:1059 UCX  ERROR ibv_create_cq(cqe=256) failed: Connection timed out
[1739881290.846191] [ohm:58090:0]        ib_iface.c:1059 UCX  ERROR ibv_create_cq(cqe=256) failed: Connection timed out
[1739881290.850090] [ohm:58080:0]        ib_iface.c:1059 UCX  ERROR ibv_create_cq(cqe=256) failed: Connection timed out
[1739881290.850489] [ohm:58082:0]        ib_iface.c:1059 UCX  ERROR ibv_create_cq(cqe=256) failed: Connection timed out
[1739881290.851592] [ohm:58060:0]        ib_iface.c:1059 UCX  ERROR ibv_create_cq(cqe=256) failed: Connection timed out
[1739881290.851963] [ohm:58078:0]        ib_iface.c:1059 UCX  ERROR ibv_create_cq(cqe=256) failed: Connection timed out
[1739881290.852071] [ohm:58179:0]        ib_iface.c:1059 UCX  ERROR ibv_create_cq(cqe=256) failed: Connection timed out
[1739881290.854395] [ohm:58110:0]        ib_iface.c:1059 UCX  ERROR ibv_create_cq(cqe=256) failed: Connection timed out
[1739881290.855759] [ohm:58081:0]        ib_iface.c:1059 UCX  ERROR ibv_create_cq(cqe=256) failed: Connection timed out
[1739881290.856011] [ohm:58125:0]        ib_iface.c:1059 UCX  ERROR ibv_create_cq(cqe=256) failed: Connection timed out
[1739881290.857526] [ohm:58167:0]        ib_iface.c:1059 UCX  ERROR ibv_create_cq(cqe=256) failed: Connection timed out
[1739881290.857591] [ohm:58177:0]        ib_iface.c:1059 UCX  ERROR ibv_create_cq(cqe=256) failed: Connection timed out
[1739881290.858455] [ohm:58083:0]        ib_iface.c:1059 UCX  ERROR ibv_create_cq(cqe=256) failed: Connection timed out
[1739881290.859646] [ohm:58134:0]        ib_iface.c:1059 UCX  ERROR ibv_create_cq(cqe=256) failed: Connection timed out
[1739881290.860406] [ohm:58196:0]        ib_iface.c:1059 UCX  ERROR ibv_create_cq(cqe=256) failed: Connection timed out


           ************************************************************
           *        Program running with 64 parallel MPI-processes    *
           *              working on a common directory               *
           ************************************************************

-------------------------------------------------------------------------------------------
                                      ORCA LEAN-SCF
                              memory conserving SCF solver
-------------------------------------------------------------------------------------------

----------------------------------------D-I-I-S--------------------------------------------
Iteration    Energy (Eh)           Delta-E    RMSDP     MaxDP     DIISErr   Damp  Time(sec)
-------------------------------------------------------------------------------------------
               ***  Starting incremental Fock matrix formation  ***
    1    -908.1358030178075751     0.00e+00  1.43e-03  2.25e-01  1.48e-01  0.700   7.6
    2    -908.4012821049486774    -2.65e-01  1.15e-03  1.38e-01  7.14e-02  0.700   6.4
                               ***Turning on AO-DIIS***
    3    -908.5184250531319776    -1.17e-01  8.16e-04  9.43e-02  3.03e-02  0.700   5.6
    4    -908.5905521637232596    -7.21e-02  1.94e-03  2.33e-01  1.94e-02  0.000   5.6
    5    -908.7526791241748469    -1.62e-01  2.89e-04  8.15e-02  5.21e-03  0.000   5.8
                              *** Initializing SOSCF ***
---------------------------------------S-O-S-C-F--------------------------------------
Iteration    Energy (Eh)           Delta-E    RMSDP     MaxDP     MaxGrad    Time(sec)
--------------------------------------------------------------------------------------
    6    -908.7539888546434668    -1.31e-03  1.47e-04  4.05e-02  3.07e-03     6.4
               *** Restarting incremental Fock matrix formation ***
    7    -908.7545578838712572    -5.69e-04  2.31e-04  2.36e-02  3.20e-03     7.3
    8    -908.7549161358401761    -3.58e-04  2.23e-04  5.08e-02  1.60e-03     6.5
    9    -908.7550341474138804    -1.18e-04  1.25e-04  1.02e-02  1.21e-03     6.6
   10    -908.7551035173491982    -6.94e-05  3.44e-05  1.05e-02  4.89e-04     6.3
   11    -908.7551122754989592    -8.76e-06  9.93e-06  2.30e-03  1.63e-04     6.1
   12    -908.7551147394578948    -2.46e-06  5.66e-06  8.01e-04  1.59e-04     6.0
   13    -908.7551159959525648    -1.26e-06  3.96e-06  8.31e-04  4.09e-05     5.9
   14    -908.7551160881498618    -9.22e-08  1.18e-06  2.79e-04  2.42e-05     5.8
   15    -908.7551161464703000    -5.83e-08  1.18e-06  2.37e-04  1.27e-05     5.6
   16    -908.7551161733504159    -2.69e-08  8.42e-07  1.49e-04  7.07e-06     5.4
   17    -908.7551161626665817     1.07e-08  1.23e-06  2.15e-04  3.77e-06     5.4
   18    -908.7551161340948056     2.86e-08  1.10e-06  2.47e-04  1.97e-06     5.2
                  *** Gradient check signals convergence ***

               *****************************************************
               *                     SUCCESS                       *
               *           SCF CONVERGED AFTER  18 CYCLES          *
               *****************************************************

Recomputing exchange energy using gridx3       ... done (    7.764 sec)
Old exchange energy                            :    -35.039736264 Eh
New exchange energy                            :    -35.039751658 Eh
Exchange energy change after final integration :     -0.000015395 Eh
Total energy after final integration           :   -908.755131529 Eh
             **** ENERGY FILE WAS UPDATED (orca.en.tmp) ****

----------------
TOTAL SCF ENERGY
----------------

Total Energy       :       -908.75513152878739 Eh          -24728.48430 eV

Components:
Nuclear Repulsion  :       1432.59078494250889 Eh           38982.77710 eV
Electronic Energy  :      -2341.34590107660370 Eh          -63711.26099 eV
One Electron Energy:      -4082.38706626039402 Eh         -111087.39965 eV
Two Electron Energy:       1741.04116518379033 Eh           47376.13866 eV

Virial components:
Potential Energy   :      -1814.49721033848755 Eh          -49374.97927 eV
Kinetic Energy     :        905.74207880970016 Eh           24646.49497 eV
Virial Ratio       :          2.00332661227692

DFT components:
N(Alpha)           :       66.999941439264 electrons
N(Beta)            :       64.999938276188 electrons
N(Total)           :      131.999879715451 electrons
E(XC)              :      -86.256952697842 Eh       

---------------
SCF CONVERGENCE
---------------

  Last Energy change         ...   -2.8572e-08  Tolerance :   1.0000e-08
  Last MAX-Density change    ...    2.4739e-04  Tolerance :   1.0000e-07
  Last RMS-Density change    ...    1.1002e-06  Tolerance :   5.0000e-09
  Last DIIS Error            ...    3.0699e-03  Tolerance :   5.0000e-07
  Last Orbital Gradient      ...    1.9708e-06  Tolerance :   1.0000e-05
  Last Orbital Rotation      ...    1.3102e-05  Tolerance :   1.0000e-05


----------------------
UHF SPIN CONTAMINATION
----------------------

Warning: in a DFT calculation there is little theoretical justification to 
         calculate <S**2> as in Hartree-Fock theory. We will do it anyways
         but you should keep in mind that the values have only limited relevance

Expectation value of <S**2>     :     2.016190
Ideal value S*(S+1) for S=1.0   :     2.000000
Deviation                       :     0.016190

----------------
ORBITAL ENERGIES
----------------
                 SPIN UP ORBITALS
  NO   OCC          E(Eh)            E(eV) 
   0   1.0000     -19.341647      -526.3130 
   1   1.0000     -19.330290      -526.0039 
   2   1.0000     -19.326982      -525.9139 
   3   1.0000     -19.314568      -525.5761 
   4   1.0000     -14.564327      -396.3155 
   5   1.0000     -14.563354      -396.2890 
   6   1.0000     -14.559518      -396.1846 
   7   1.0000     -14.556908      -396.1136 
   8   1.0000     -10.511163      -286.0233 
   9   1.0000     -10.500952      -285.7454 
  10   1.0000     -10.483574      -285.2725 
  11   1.0000     -10.474821      -285.0344 
  12   1.0000     -10.446506      -284.2639 
  13   1.0000     -10.446339      -284.2593 
  14   1.0000     -10.424391      -283.6621 
  15   1.0000     -10.413264      -283.3593 
  16   1.0000     -10.377046      -282.3738 
  17   1.0000     -10.369682      -282.1734 
  18   1.0000      -1.221226       -33.2313 
  19   1.0000      -1.215577       -33.0775 
  20   1.0000      -1.197695       -32.5909 
  21   1.0000      -1.191670       -32.4270 
  22   1.0000      -1.120128       -30.4802 
  23   1.0000      -1.098979       -29.9047 
  24   1.0000      -1.066273       -29.0148 
  25   1.0000      -1.054976       -28.7073 
  26   1.0000      -0.974639       -26.5213 
  27   1.0000      -0.959587       -26.1117 
  28   1.0000      -0.886964       -24.1355 
  29   1.0000      -0.841472       -22.8976 
  30   1.0000      -0.828191       -22.5362 
  31   1.0000      -0.802041       -21.8246 
  32   1.0000      -0.788892       -21.4668 
  33   1.0000      -0.778096       -21.1731 
  34   1.0000      -0.696203       -18.9447 
  35   1.0000      -0.693347       -18.8669 
  36   1.0000      -0.686428       -18.6786 
  37   1.0000      -0.663955       -18.0671 
  38   1.0000      -0.659172       -17.9370 
  39   1.0000      -0.642784       -17.4910 
  40   1.0000      -0.616804       -16.7841 
  41   1.0000      -0.605277       -16.4704 
  42   1.0000      -0.597588       -16.2612 
  43   1.0000      -0.586164       -15.9503 
  44   1.0000      -0.574401       -15.6302 
  45   1.0000      -0.571313       -15.5462 
  46   1.0000      -0.565868       -15.3981 
  47   1.0000      -0.562211       -15.2985 
  48   1.0000      -0.559399       -15.2220 
  49   1.0000      -0.552948       -15.0465 
  50   1.0000      -0.545037       -14.8312 
  51   1.0000      -0.540019       -14.6947 
  52   1.0000      -0.534088       -14.5333 
  53   1.0000      -0.521745       -14.1974 
  54   1.0000      -0.514859       -14.0100 
  55   1.0000      -0.502292       -13.6681 
  56   1.0000      -0.490655       -13.3514 
  57   1.0000      -0.423756       -11.5310 
  58   1.0000      -0.421309       -11.4644 
  59   1.0000      -0.416029       -11.3207 
  60   1.0000      -0.402884       -10.9630 
  61   1.0000      -0.400484       -10.8977 
  62   1.0000      -0.391240       -10.6462 
  63   1.0000      -0.389986       -10.6121 
  64   1.0000      -0.381828       -10.3901 
  65   1.0000      -0.346830        -9.4377 
  66   1.0000      -0.333331        -9.0704 
  67   0.0000       0.005226         0.1422 
  68   0.0000       0.027293         0.7427 
  69   0.0000       0.031826         0.8660 
  70   0.0000       0.037701         1.0259 
  71   0.0000       0.055637         1.5140 
  72   0.0000       0.056765         1.5447 
  73   0.0000       0.062630         1.7042 
  74   0.0000       0.063221         1.7203 
  75   0.0000       0.065947         1.7945 
  76   0.0000       0.072164         1.9637 
  77   0.0000       0.074253         2.0205 

                 SPIN DOWN ORBITALS
  NO   OCC          E(Eh)            E(eV) 
   0   1.0000     -19.335961      -526.1582 
   1   1.0000     -19.326780      -525.9084 
   2   1.0000     -19.326449      -525.8994 
   3   1.0000     -19.314380      -525.5710 
   4   1.0000     -14.564060      -396.3082 
   5   1.0000     -14.562433      -396.2639 
   6   1.0000     -14.559168      -396.1751 
   7   1.0000     -14.556351      -396.0984 
   8   1.0000     -10.511188      -286.0240 
   9   1.0000     -10.500986      -285.7464 
  10   1.0000     -10.484787      -285.3055 
  11   1.0000     -10.475811      -285.0613 
  12   1.0000     -10.446427      -284.2617 
  13   1.0000     -10.446313      -284.2586 
  14   1.0000     -10.413190      -283.3573 
  15   1.0000     -10.401506      -283.0394 
  16   1.0000     -10.377605      -282.3890 
  17   1.0000     -10.370204      -282.1876 
  18   1.0000      -1.219345       -33.1801 
  19   1.0000      -1.213427       -33.0190 
  20   1.0000      -1.193522       -32.4774 
  21   1.0000      -1.185063       -32.2472 
  22   1.0000      -1.117520       -30.4093 
  23   1.0000      -1.096280       -29.8313 
  24   1.0000      -1.064458       -28.9654 
  25   1.0000      -1.053267       -28.6609 
  26   1.0000      -0.960280       -26.1305 
  27   1.0000      -0.942799       -25.6549 
  28   1.0000      -0.882655       -24.0183 
  29   1.0000      -0.836133       -22.7523 
  30   1.0000      -0.819748       -22.3065 
  31   1.0000      -0.797083       -21.6897 
  32   1.0000      -0.787087       -21.4177 
  33   1.0000      -0.776526       -21.1303 
  34   1.0000      -0.690551       -18.7909 
  35   1.0000      -0.687010       -18.6945 
  36   1.0000      -0.680791       -18.5253 
  37   1.0000      -0.657541       -17.8926 
  38   1.0000      -0.647946       -17.6315 
  39   1.0000      -0.639165       -17.3926 
  40   1.0000      -0.613799       -16.7023 
  41   1.0000      -0.600238       -16.3333 
  42   1.0000      -0.587312       -15.9816 
  43   1.0000      -0.578599       -15.7445 
  44   1.0000      -0.567618       -15.4457 
  45   1.0000      -0.562526       -15.3071 
  46   1.0000      -0.559956       -15.2372 
  47   1.0000      -0.557446       -15.1689 
  48   1.0000      -0.551404       -15.0045 
  49   1.0000      -0.545881       -14.8542 
  50   1.0000      -0.539309       -14.6753 
  51   1.0000      -0.533230       -14.5099 
  52   1.0000      -0.528158       -14.3719 
  53   1.0000      -0.506821       -13.7913 
  54   1.0000      -0.505826       -13.7642 
  55   1.0000      -0.497923       -13.5492 
  56   1.0000      -0.485508       -13.2113 
  57   1.0000      -0.418809       -11.3964 
  58   1.0000      -0.417288       -11.3550 
  59   1.0000      -0.408632       -11.1194 
  60   1.0000      -0.392375       -10.6771 
  61   1.0000      -0.387539       -10.5455 
  62   1.0000      -0.387202       -10.5363 
  63   1.0000      -0.384181       -10.4541 
  64   1.0000      -0.375427       -10.2159 
  65   0.0000      -0.064482        -1.7546 
  66   0.0000      -0.048906        -1.3308 
  67   0.0000       0.005117         0.1392 
  68   0.0000       0.027084         0.7370 
  69   0.0000       0.031811         0.8656 
  70   0.0000       0.037763         1.0276 
  71   0.0000       0.055915         1.5215 
  72   0.0000       0.056803         1.5457 
  73   0.0000       0.063395         1.7251 
  74   0.0000       0.065421         1.7802 
  75   0.0000       0.068402         1.8613 
*Only the first 10 virtual orbitals were printed.

                    ********************************
                    * MULLIKEN POPULATION ANALYSIS *
                    ********************************

--------------------------------------------
MULLIKEN ATOMIC CHARGES AND SPIN POPULATIONS
--------------------------------------------
   0 O :   -0.658532    0.205315
   1 O :   -0.663345    0.137726
   2 O :   -0.660525    0.006456
   3 O :   -0.631236    0.007373
   4 N :   -0.327139    0.014735
   5 N :   -0.321615    0.031769
   6 N :    0.074205    0.015991
   7 N :    0.002185    0.015610
   8 C :   -0.231860    0.387851
   9 C :   -0.015038    0.448032
  10 C :    0.739663    0.200038
  11 C :    0.677423    0.137396
  12 C :   -1.497641   -0.007810
  13 C :   -1.605663   -0.009824
  14 C :    0.611815    0.147023
  15 C :    0.670692    0.160939
  16 C :    0.243807   -0.013541
  17 C :    0.343998   -0.011697
  18 H :    0.546199    0.008806
  19 H :    0.377565    0.008266
  20 H :    0.324369    0.007711
  21 H :    0.277234    0.019011
  22 H :    0.354445    0.025100
  23 H :    0.357211    0.031160
  24 H :    0.319363    0.015908
  25 H :    0.351846    0.012929
  26 H :    0.099087   -0.000419
  27 H :    0.095153    0.000173
  28 H :    0.089455   -0.001496
  29 H :    0.056879   -0.000531
Sum of atomic charges         :    0.0000000
Sum of atomic spin populations:    2.0000000

-----------------------------------------------------
MULLIKEN REDUCED ORBITAL CHARGES AND SPIN POPULATIONS
-----------------------------------------------------
CHARGE
  0 O s       :     4.093908  s :     4.093908
      pz      :     1.699508  p :     4.532248
      px      :     1.303183
      py      :     1.529558
      dz2     :     0.003358  d :     0.030555
      dxz     :     0.005497
      dyz     :     0.002664
      dx2y2   :     0.010431
      dxy     :     0.008605
      f0      :     0.000186  f :     0.001821
      f+1     :     0.000331
      f-1     :     0.000057
      f+2     :     0.000245
      f-2     :     0.000212
      f+3     :     0.000418
      f-3     :     0.000373

  1 O s       :     4.094092  s :     4.094092
      pz      :     1.340353  p :     4.535395
      px      :     1.482549
      py      :     1.712493
      dz2     :     0.008625  d :     0.031924
[...]
[1739881551.553203] [ohm:60410:0]        ib_iface.c:1059 UCX  ERROR ibv_create_cq(cqe=256) failed: Connection timed out
[1739881551.556669] [ohm:60417:0]        ib_iface.c:1059 UCX  ERROR ibv_create_cq(cqe=256) failed: Connection timed out
[1739881551.557095] [ohm:60361:0]        ib_iface.c:1059 UCX  ERROR ibv_create_cq(cqe=256) failed: Connection timed out
[1739881551.567818] [ohm:60386:0]        ib_iface.c:1059 UCX  ERROR ibv_create_cq(cqe=256) failed: Connection timed out
[1739881551.569700] [ohm:60459:0]        ib_iface.c:1059 UCX  ERROR ibv_create_cq(cqe=256) failed: Connection timed out
[1739881551.570589] [ohm:60451:0]        ib_iface.c:1059 UCX  ERROR ibv_create_cq(cqe=256) failed: Connection timed out
[1739881551.574235] [ohm:60392:0]        ib_iface.c:1059 UCX  ERROR ibv_create_cq(cqe=256) failed: Connection timed out
[1739881551.574458] [ohm:60365:0]        ib_iface.c:1059 UCX  ERROR ibv_create_cq(cqe=256) failed: Connection timed out
[1739881551.574450] [ohm:60502:0]        ib_iface.c:1059 UCX  ERROR ibv_create_cq(cqe=256) failed: Connection timed out
[1739881551.575045] [ohm:60463:0]        ib_iface.c:1059 UCX  ERROR ibv_create_cq(cqe=256) failed: Connection timed out
[1739881551.575087] [ohm:60385:0]        ib_iface.c:1059 UCX  ERROR ibv_create_cq(cqe=256) failed: Connection timed out


           ************************************************************
           *        Program running with 64 parallel MPI-processes    *
           *              working on a common directory               *
           ************************************************************

------------------------------------------------------------------------------
                              ORCA PROPERTY CALCULATIONS
------------------------------------------------------------------------------

GBWName                                 ... orca.gbw
Number of atoms                         ...     30
Number of basis functions               ...    882
Max core memory                         ...   1024 MB

Electric properties:
Dipole moment                           ... YES
Quadrupole moment                       ...  NO
Static polarizability (Dipole/Dipole)   ...  NO
Static polarizability (Dipole/Quad.)    ...  NO
Static polarizability (Quad./Quad.)     ...  NO
Static polarizability (Velocity)        ...  NO

Atomic electric properties:
Dipole moment                           ...  NO
Quadrupole moment                       ...  NO
Static polarizability                   ...  NO

Choice of electric origin               ... Center of mass
Position of electric origin             ...    -0.005733    -0.003527    -0.020798

General magnetic properties:
Magnetizability                         ...  NO

EPR properties:
g-Tensor (aka g-matrix)                 ...  NO
Zero-Field splitting spin-orbit         ...  NO
Zero-field splitting spin-spin          ...  NO
Hyperfine couplings                     ...  NO (   0 nuclei)
Quadrupole couplings                    ...  NO (   0 nuclei)
Contact density                         ...  NO (   0 nuclei)

NMR properties:
Chemical shifts                         ...  NO (   0 nuclei)
Spin-rotation constants                 ...  NO (   0 nuclei)
Spin-spin couplings                     ...  NO (   0 nuclei,    0 pairs)

Choice of magnetic origin               ... GIAO
Position of magnetic origin             ...     0.000000     0.000000     0.000000

Properties with geometric perturbations:
SCF Hessian                             ...  NO
IR spectrum                             ...  NO
VCD spectrum                            ...  NO
X-ray spectroscopy properties:
SCF XES/XAS/RIXS spectra                ...  NO


-------------
DIPOLE MOMENT
-------------

Method             : SCF
Type of density    : Electron Density
Multiplicity       :   3
Irrep              :   0
Energy             :  -908.7551315287873877 Eh
Relativity type    : 
Basis              : AO
                                X                 Y                 Z
Electronic contribution:     -2.681226588      -9.013004334      -7.335658316
Nuclear contribution   :      2.771034482      10.715423764       9.845019521
                        -----------------------------------------
Total Dipole Moment    :      0.089807894       1.702419430       2.509361204
                        -----------------------------------------
Magnitude (a.u.)       :      3.033676158
Magnitude (Debye)      :      7.710991990



--------------------
Rotational spectrum 
--------------------
 
Rotational constants in cm-1:             0.019697             0.013243             0.011615 
Rotational constants in MHz :           590.504873           397.008930           348.220523 

Dipole components along the rotational axes: 
x,y,z [a.u.] :    -0.666318     1.657636     2.451827 
x,y,z [Debye]:    -1.693644     4.213375     6.232049 

 

-------------
DIPOLE MOMENT
-------------

Method             : TDA/CIS
Type of density    : Electron Density
Level              : Relaxed density
State              :   1
Multiplicity       :   3
Irrep              :   0
Energy             :     0.0000000000000000 Eh
Relativity type    : 
Basis              : AO
                                X                 Y                 Z
Electronic contribution:     -2.768079099      -8.995459137      -7.214906629
Nuclear contribution   :      2.771034482      10.715423764       9.845019521
                        -----------------------------------------
Total Dipole Moment    :      0.002955383       1.719964627       2.630112892
                        -----------------------------------------
Magnitude (a.u.)       :      3.142575516
Magnitude (Debye)      :      7.987792162



--------------------
Rotational spectrum 
--------------------
 
Rotational constants in cm-1:             0.019697             0.013243             0.011615 
Rotational constants in MHz :           590.504873           397.008930           348.220523 

Dipole components along the rotational axes: 
x,y,z [a.u.] :    -0.608982     1.673483     2.589281 
x,y,z [Debye]:    -1.547908     4.253656     6.581430 

 

Dipole moment calculation done in   0.2 sec 

Maximum memory used throughout the entire PROP-calculation: 81.1 MB
[1739881553.980637] [ohm:60704:0]        ib_iface.c:1059 UCX  ERROR ibv_create_cq(cqe=256) failed: Connection timed out
[1739881553.982419] [ohm:60706:0]        ib_iface.c:1059 UCX  ERROR ibv_create_cq(cqe=256) failed: Connection timed out
[1739881554.053754] [ohm:60711:0]        ib_iface.c:1059 UCX  ERROR ibv_create_cq(cqe=256) failed: Connection timed out
[1739881554.056064] [ohm:60708:0]        ib_iface.c:1059 UCX  ERROR ibv_create_cq(cqe=256) failed: Connection timed out
[1739881554.060213] [ohm:60705:0]        ib_iface.c:1059 UCX  ERROR ibv_create_cq(cqe=256) failed: Connection timed out
[1739881554.071071] [ohm:60713:0]        ib_iface.c:1059 UCX  ERROR ibv_create_cq(cqe=256) failed: Connection timed out
[1739881554.071836] [ohm:60749:0]        ib_iface.c:1059 UCX  ERROR ibv_create_cq(cqe=256) failed: Connection timed out
[1739881554.092039] [ohm:60715:0]        ib_iface.c:1059 UCX  ERROR ibv_create_cq(cqe=256) failed: Connection timed out
[1739881554.097325] [ohm:60707:0]        ib_iface.c:1059 UCX  ERROR ibv_create_cq(cqe=256) failed: Connection timed out
[1739881554.098057] [ohm:60717:0]        ib_iface.c:1059 UCX  ERROR ibv_create_cq(cqe=256) failed: Connection timed out
[1739881554.122324] [ohm:60767:0]        ib_iface.c:1059 UCX  ERROR ibv_create_cq(cqe=256) failed: Connection timed out
[1739881554.130873] [ohm:60720:0]        ib_iface.c:1059 UCX  ERROR ibv_create_cq(cqe=256) failed: Connection timed out
[1739881554.146554] [ohm:60791:0]        ib_iface.c:1059 UCX  ERROR ibv_create_cq(cqe=256) failed: Connection timed out
[1739881554.156493] [ohm:60783:0]        ib_iface.c:1059 UCX  ERROR ibv_create_cq(cqe=256) failed: Connection timed out
[1739881554.160495] [ohm:60780:0]        ib_iface.c:1059 UCX  ERROR ibv_create_cq(cqe=256) failed: Connection timed out
[1739881554.161215] [ohm:60762:0]        ib_iface.c:1059 UCX  ERROR ibv_create_cq(cqe=256) failed: Connection timed out
[1739881554.162136] [ohm:60710:0]        ib_iface.c:1059 UCX  ERROR ibv_create_cq(cqe=256) failed: Connection timed out
[1739881554.175754] [ohm:60750:0]        ib_iface.c:1059 UCX  ERROR ibv_create_cq(cqe=256) failed: Connection timed out
[1739881554.177250] [ohm:60732:0]        ib_iface.c:1059 UCX  ERROR ibv_create_cq(cqe=256) failed: Connection timed out
[1739881554.178755] [ohm:60836:0]        ib_iface.c:1059 UCX  ERROR ibv_create_cq(cqe=256) failed: Connection timed out
[1739881554.182909] [ohm:60724:0]        ib_iface.c:1059 UCX  ERROR ibv_create_cq(cqe=256) failed: Connection timed out
[1739881554.201407] [ohm:60773:0]        ib_iface.c:1059 UCX  ERROR ibv_create_cq(cqe=256) failed: Connection timed out
[1739881554.234759] [ohm:60719:0]        ib_iface.c:1059 UCX  ERROR ibv_create_cq(cqe=256) failed: Connection timed out
[1739881554.241019] [ohm:60828:0]        ib_iface.c:1059 UCX  ERROR ibv_create_cq(cqe=256) failed: Connection timed out
[1739881554.242679] [ohm:60819:0]        ib_iface.c:1059 UCX  ERROR ibv_create_cq(cqe=256) failed: Connection timed out
[1739881554.249765] [ohm:60776:0]        ib_iface.c:1059 UCX  ERROR ibv_create_cq(cqe=256) failed: Connection timed out
[1739881554.249910] [ohm:60721:0]        ib_iface.c:1059 UCX  ERROR ibv_create_cq(cqe=256) failed: Connection timed out
[1739881554.250430] [ohm:60807:0]        ib_iface.c:1059 UCX  ERROR ibv_create_cq(cqe=256) failed: Connection timed out
[1739881554.258780] [ohm:60716:0]        ib_iface.c:1059 UCX  ERROR ibv_create_cq(cqe=256) failed: Connection timed out
[1739881554.260969] [ohm:60726:0]        ib_iface.c:1059 UCX  ERROR ibv_create_cq(cqe=256) failed: Connection timed out
[1739881554.264507] [ohm:60744:0]        ib_iface.c:1059 UCX  ERROR ibv_create_cq(cqe=256) failed: Connection timed out
[1739881554.270019] [ohm:60747:0]        ib_iface.c:1059 UCX  ERROR ibv_create_cq(cqe=256) failed: Connection timed out
[1739881554.272791] [ohm:60757:0]        ib_iface.c:1059 UCX  ERROR ibv_create_cq(cqe=256) failed: Connection timed out
[1739881554.274984] [ohm:60842:0]        ib_iface.c:1059 UCX  ERROR ibv_create_cq(cqe=256) failed: Connection timed out
[1739881554.278105] [ohm:60812:0]        ib_iface.c:1059 UCX  ERROR ibv_create_cq(cqe=256) failed: Connection timed out
[1739881554.280484] [ohm:60852:0]        ib_iface.c:1059 UCX  ERROR ibv_create_cq(cqe=256) failed: Connection timed out
[1739881554.289009] [ohm:60848:0]        ib_iface.c:1059 UCX  ERROR ibv_create_cq(cqe=256) failed: Connection timed out
[1739881554.291118] [ohm:60831:0]        ib_iface.c:1059 UCX  ERROR ibv_create_cq(cqe=256) failed: Connection timed out
[1739881554.296735] [ohm:60751:0]        ib_iface.c:1059 UCX  ERROR ibv_create_cq(cqe=256) failed: Connection timed out
[1739881554.300181] [ohm:60763:0]        ib_iface.c:1059 UCX  ERROR ibv_create_cq(cqe=256) failed: Connection timed out
[1739881554.300840] [ohm:60709:0]        ib_iface.c:1059 UCX  ERROR ibv_create_cq(cqe=256) failed: Connection timed out
[1739881554.302627] [ohm:60714:0]        ib_iface.c:1059 UCX  ERROR ibv_create_cq(cqe=256) failed: Connection timed out
[1739881554.309691] [ohm:60816:0]        ib_iface.c:1059 UCX  ERROR ibv_create_cq(cqe=256) failed: Connection timed out
[1739881554.314317] [ohm:60737:0]        ib_iface.c:1059 UCX  ERROR ibv_create_cq(cqe=256) failed: Connection timed out
[1739881554.317396] [ohm:60723:0]        ib_iface.c:1059 UCX  ERROR ibv_create_cq(cqe=256) failed: Connection timed out
[1739881554.319791] [ohm:60809:0]        ib_iface.c:1059 UCX  ERROR ibv_create_cq(cqe=256) failed: Connection timed out
[1739881554.321477] [ohm:60728:0]        ib_iface.c:1059 UCX  ERROR ibv_create_cq(cqe=256) failed: Connection timed out
[1739881554.322216] [ohm:60822:0]        ib_iface.c:1059 UCX  ERROR ibv_create_cq(cqe=256) failed: Connection timed out
[1739881554.325329] [ohm:60799:0]        ib_iface.c:1059 UCX  ERROR ibv_create_cq(cqe=256) failed: Connection timed out
[1739881554.325639] [ohm:60718:0]        ib_iface.c:1059 UCX  ERROR ibv_create_cq(cqe=256) failed: Connection timed out
[1739881554.328434] [ohm:60754:0]        ib_iface.c:1059 UCX  ERROR ibv_create_cq(cqe=256) failed: Connection timed out
[1739881554.329874] [ohm:60789:0]        ib_iface.c:1059 UCX  ERROR ibv_create_cq(cqe=256) failed: Connection timed out
[1739881554.336441] [ohm:60734:0]        ib_iface.c:1059 UCX  ERROR ibv_create_cq(cqe=256) failed: Connection timed out
[1739881554.339863] [ohm:60801:0]        ib_iface.c:1059 UCX  ERROR ibv_create_cq(cqe=256) failed: Connection timed out
[1739881554.340119] [ohm:60795:0]        ib_iface.c:1059 UCX  ERROR ibv_create_cq(cqe=256) failed: Connection timed out
[1739881554.343485] [ohm:60742:0]        ib_iface.c:1059 UCX  ERROR ibv_create_cq(cqe=256) failed: Connection timed out
[1739881554.346376] [ohm:60722:0]        ib_iface.c:1059 UCX  ERROR ibv_create_cq(cqe=256) failed: Connection timed out
[1739881554.346510] [ohm:60712:0]        ib_iface.c:1059 UCX  ERROR ibv_create_cq(cqe=256) failed: Connection timed out
[1739881554.347702] [ohm:60756:0]        ib_iface.c:1059 UCX  ERROR ibv_create_cq(cqe=256) failed: Connection timed out
[1739881554.348682] [ohm:60725:0]        ib_iface.c:1059 UCX  ERROR ibv_create_cq(cqe=256) failed: Connection timed out
[1739881554.348829] [ohm:60787:0]        ib_iface.c:1059 UCX  ERROR ibv_create_cq(cqe=256) failed: Connection timed out
[1739881554.348834] [ohm:60844:0]        ib_iface.c:1059 UCX  ERROR ibv_create_cq(cqe=256) failed: Connection timed out
[1739881554.349417] [ohm:60769:0]        ib_iface.c:1059 UCX  ERROR ibv_create_cq(cqe=256) failed: Connection timed out
[1739881554.350185] [ohm:60856:0]        ib_iface.c:1059 UCX  ERROR ibv_create_cq(cqe=256) failed: Connection timed out

--------------------------------
SUGGESTED CITATIONS FOR THIS RUN
--------------------------------

Below you find a list of papers that are relevant to this ORCA run
We neither can nor want to force you to cite these papers, but we appreciate if you do
You receive ORCA, which is the product of decades of hard work by many enthusiastic individuals, for free
The only thing we kindly ask in return is that you cite our papers,
We deeply appreciate it, if you show your appreciation for ORCA by not just citing the generic ORCA reference.

Please note that relegating all ORCA citations to the supporting information does *not* help us.
SI sections are not indexed - citations you put there will not count into any citation statistics
But we need these citations in order to attract the funding resources that allow us to do what we are doing

Therefore, if you are a happy ORCA user, please consider citing a few of the papers listed below in the main body of your paper

In addition to the list printed below, the program has created the file orca.bibtex that contains the list in bibtex format
You can import this file easily into all common literature databanks and citation aid programs


List of essential papers. We consider these as the minimum necessary citations

  1. Neese,F.
     Software update: the ORCA program system, version 5.0
     WIRES Comput. Molec. Sci., 2022 12(1)e1606
     doi.org/10.1002/wcms.1606

List of papers to cite with high priority. The work reported in these papers was absolutely
necessary for this run to complete.
Our perspective: the developers of density functionals and basis sets usually get cited in chemistry papers
Good! But without the algorithms to do something with them, the functionals or basis sets would not do anything.
Hence, in our opinion, the algorithm design and method developments papers are equally worthy of getting cited

  1. Neese,F.; Olbrich,G.
     Efficient use of the resolution of the identity approximation in time-dependent density functional calculations with hybrid density functionals
     Chem. Phys. Lett., 2002 362 170-178
     doi.org/10.1016/s0009-2614(02)01053-9
  2. Neese,F.
     An improvement of the resolution of the identity approximation for the formation of the Coulomb matrix
     J. Comp. Chem., 2003 24(14)1740-1747
     doi.org/10.1002/jcc.10318
  3. Neese,F.; Wennmohs,F.; Hansen,A.; Becker,U.
     Efficient, approximate and parallel Hartree-Fock and hybrid DFT calculations. A 'chain-of-spheres' algorithm for the Hartree-Fock exchange
     Chem. Phys., 2009 356(1-3)98-109
     doi.org/10.1016/j.chemphys.2008.10.036
  4. Petrenko,T.; Kossmann,S.; Neese,F.
     Efficient time-dependent density functional theory approximations for hybrid density functionals: Analytical gradients and parallelization
     J. Chem. Phys., 2011 134 054116
     doi.org/10.1063/1.3533441
  5. Helmich-Paris,B.; de Souza,B.; Neese,F.; Izsák,R.
     An improved chain of spheres for exchange algorithm
     J. Chem. Phys., 2021 155 104109
     doi.org/doi: 10.1063/5.0058766.
  6. Neese,F.
     The SHARK Integral Generation and Digestion System
     J. Comp. Chem., 2022  1-16
     doi.org/10.1002/jcc.26942
  7. Lehtola,S.; Steigemann,C.; Oliveira,M.; Marques,M.
     Recent developments in Libxc - A comprehensive library of functionals for density functional theory
     Software X, 2018 7 
     doi.org/10.1016/j.softx.2017.11.002
  8. Grimme,S.; Antony,J.; Ehrlich,S.; Krieg,H.
     A consistent and accurate ab initio parametrization of density functional dispersion correction (DFT-D) for the 94 elements H-Pu
     J. Chem. Phys., 2010 132 154104-XXXX
     doi.org/10.1063/1.3382344
  9. Grimme,S.; Ehrlich,S.; Goerigk,L.
     Effect of the damping function in dispersion corrected density functional theory
     J. Comput. Chem., 2011 32(7)1456-1465
     doi.org/10.1002/jcc.21759

List of suggested additional citations. These are papers that are important in the 'surrounding' of 
of this run, or papers that preceded the highly important papers. If you like your results we are grateful for a citation.

  1. Izsak,R.; Neese,F.
     An overlap fitted chain of spheres exchange method
     J. Chem. Phys., 2011 135 144105
     doi.org/10.1063/1.3646921
  2. Izsak,R.; Hansen,A.; Neese,F.
     The resolution of identity and chain of spheres approximations for the LPNO-CCSD singles Fock term
     Molec. Phys., 2012 110 2413-2417
     doi.org/10.1080/00268976.2012.687466
  3. Neese,F.
     The ORCA program system
     WIRES Comput. Molec. Sci., 2012 2(1)73-78
     doi.org/10.1002/wcms.81
  4. Izsak,R.; Neese,F.; Klopper,W.
     Robust fitting techniques in the chain of spheres approximation to the Fock exchange: The role of the complementary space
     J. Chem. Phys., 2013 139 
     doi.org/10.1063/1.4819264
  5. Neese,F.
     Software update: the ORCA program system, version 4.0
     WIRES Comput. Molec. Sci., 2018 8(1)1-6
     doi.org/10.1002/wcms.1327
  6. Neese,F.; Wennmohs,F.; Becker,U.; Riplinger,C.
     The ORCA quantum chemistry program package
     J. Chem. Phys., 2020 152 Art. No. L224108
     doi.org/10.1063/5.0004608

List of optional additional citations

  1. Neese,F.
     Approximate second-order SCF convergence for spin unrestricted wavefunctions
     Chem. Phys. Lett., 2000 325(1-3)93-98
     doi.org/10.1016/s0009-2614(00)00662-x

Timings for individual modules:

Sum of individual times          ...      274.038 sec (=   4.567 min)
Startup calculation              ...        6.280 sec (=   0.105 min)   2.3 %
SCF iterations                   ...      127.379 sec (=   2.123 min)  46.5 %
Property integrals               ...        4.157 sec (=   0.069 min)   1.5 %
Property calculations            ...        2.855 sec (=   0.048 min)   1.0 %
CIS module                       ...      133.367 sec (=   2.223 min)  48.7 %
                             ****ORCA TERMINATED NORMALLY****
TOTAL RUN TIME: 0 days 0 hours 4 minutes 36 seconds 113 msec
