30
Properties=species:S:1:pos:R:3:momenta:R:3:forces:R:3 Coordinates=T from=T ORCA-job=T orca=T E=T -908.730803908782=T energy=-24729.05888370461 free_energy=-24729.05888370461 stress="3.5267643381858533e-06 6.869918368794572e-07 -1.3029385363699502e-06 6.869918368794572e-07 4.185486872257334e-06 7.658952367124951e-07 -1.3029385363699502e-06 7.658952367124951e-07 2.898608424964592e-06" pbc="F F F"
O        3.43893923       0.57148540      -0.52118523      -0.97057445       0.60328481      -0.19790355      -0.49036134      -0.06482040       0.48407079
O       -1.40649082       1.27622094      -2.51383578      -0.37475614      -0.22841151       0.10840242       0.06803065      -0.08009340       0.81300916
O        0.52726648      -2.86885047      -0.95410389      -0.31766380       0.32961199      -1.62818019      -0.03714224       0.59298445       0.56700458
O       -3.15547241      -1.67338703       0.37582474       0.65738269       0.26652923       0.30914508       0.39067521       0.49311554      -0.13934256
N        0.29158846      -1.43188671       0.87565592      -0.49711708       0.71443745       0.10601077      -0.04633781      -0.42387413      -0.22717998
N       -2.03737504       0.14763083       1.19008686       0.95687925       0.00118869      -0.00531505       0.28834941       0.69376780       0.23026548
N        1.71334050      -0.86126618      -0.83808204       0.19670261      -0.49226353       0.43069629       0.15018413      -0.82102584      -0.00162823
N       -1.84093267      -0.39437445      -1.02160701       0.50637288       0.54502804       0.59720414      -1.09140609      -0.95976595      -0.80277096
C        1.81836930       0.42616152       1.21193957      -0.27238507       0.34044948      -0.20468401      -1.54084700      -0.18315332      -0.54237478
C       -0.66046240       1.51945397      -0.26335416       0.01902834      -1.00269370       0.30895984       0.02263677       0.48728615      -0.32459158
C        0.44687392      -0.13779714       1.50976108      -0.21204919      -0.01852806       0.61484355       0.18520021       0.39902865      -0.68224663
C       -0.80682080       0.91871797       1.06492932      -0.57358454      -0.27286021       0.60094457       0.87723535      -0.90546914       1.12144726
C        2.35144891       1.50321073       2.03133933      -0.70013399       1.08083219      -0.47081064      -0.91722450       1.60267576       0.53515755
C       -0.03764343       2.86559752      -0.47441930       1.48909696      -1.30651923      -0.26129138       0.36358172      -0.59215335      -0.27448688
C        2.40958444       0.07691262      -0.05915634       0.35228774      -0.60661395      -0.17677331       0.17394768      -0.04703542      -0.35378802
C       -1.34791652       0.87214963      -1.34896506      -0.12886104       0.34066909       0.92800697       0.31984391      -0.46927233      -1.10439257
C        0.78454890      -1.85612570      -0.34624457      -0.38535639      -0.06889006      -0.72610550       1.07445516       1.54331972      -0.23403220
C       -2.40638192      -0.72529442       0.20775527      -0.10889180      -0.06251574       0.13865822      -0.29447520      -0.20034638      -0.06613711
H        0.28510928      -0.26060749       2.59065436      -0.10297064      -0.04208977       0.14931336       0.14637004       0.07515800      -0.27570951
H       -0.75162875       1.71033328       1.83077593       0.29657102       0.03261609      -0.19277205      -0.19993316      -0.35569813      -0.20303512
H        2.90108572       2.24469802       1.45603469      -0.31267794       0.03690382      -0.12041160       0.12462437      -0.17547572      -0.22178286
H        1.54135582       2.09864529       2.58725458      -0.16159321       0.06942618      -0.16438386       0.71659418      -0.85336240      -0.58145218
H        3.02143613       1.14543254       2.77478691       0.06011869      -0.25138768      -0.01785262       0.53174446      -0.35230581       0.65439303
H       -0.64961655       3.55246378       0.12491097       0.24543186       0.08936459      -0.21981792       0.09963064       0.31989655      -0.48955788
H        0.98110665       2.94479273      -0.05517187       0.21539384       0.00794068      -0.31206592      -0.29410819      -0.18289738      -0.12383709
H        0.03744644       3.08115739      -1.57601541      -0.08561554      -0.17455444       0.06680734      -0.36812956       0.08439270       1.07515913
H       -0.48961109      -1.97983063       1.16073646       0.24366443       0.00403520       0.01193679      -0.24658503      -0.23493869       0.26178085
H       -2.46660441       0.05316753       2.09648809      -0.08136770      -0.07337107       0.02768152       0.04501654      -0.16004441      -0.13937318
H        2.31224657      -1.12343808      -1.62985438       0.07434196       0.02874570       0.15489188      -0.61275743      -0.12168598       0.26092608
H       -2.22419400      -0.99818274      -1.79498904      -0.02767373       0.10963571       0.14486487       0.56118712       0.89179288       0.78450542
