7
Properties=species:S:1:pos:R:3:momenta:R:3:forces:R:3 Coordinates=T from=T ORCA-job=T orca=T E=T -153.922068275156=T energy=-4184.0107207999945 free_energy=-4184.0107207999945 stress="-1.7696934451749055e-06 -1.911952668810601e-06 -1.772882255558457e-06 -1.911952668810601e-06 -8.856588847264067e-06 2.5227118590007606e-06 -1.772882255558457e-06 2.5227118590007606e-06 -1.2917307753990925e-06" pbc="F F F"
O        0.81558726       1.41666861      -0.00513547       0.01631971       1.98783828      -0.38826310      -0.23906124       1.82483740      -0.94115699
C        0.51733771       0.19065971       0.23426124      -0.19433493      -1.79451415       1.01686518       0.30320866      -1.24704593       0.72409673
C       -0.45545567      -0.80828428      -0.24343448       0.18611987      -0.33880034      -0.28145363      -0.90033123      -0.47568473      -0.64579089
H        1.19409219      -0.21537477       0.95251040       0.15064049       0.16840422       0.05711300       0.62643872      -0.31100950       0.69139514
H        0.09612493      -1.66433358      -0.66105784      -0.10943478      -0.05407903      -0.19401261      -0.27172188       0.10227427       0.03067868
H       -1.17483779      -0.46566202      -1.00947150       0.09274933       0.07641707      -0.01159704       0.51690631       0.16078261       0.41432808
H       -1.02728515      -1.17222980       0.62133186      -0.14205970      -0.04526605      -0.19865180      -0.03543935      -0.05415412      -0.27355076
