
                                 *****************
                                 * O   R   C   A *
                                 *****************

                                            #,                                       
                                            ###                                      
                                            ####                                     
                                            #####                                    
                                            ######                                   
                                           ########,                                 
                                     ,,################,,,,,                         
                               ,,#################################,,                 
                          ,,##########################################,,             
                       ,#########################################, ''#####,          
                    ,#############################################,,   '####,        
                  ,##################################################,,,,####,       
                ,###########''''           ''''###############################       
              ,#####''   ,,,,##########,,,,          '''####'''          '####       
            ,##' ,,,,###########################,,,                        '##       
           ' ,,###''''                  '''############,,,                           
         ,,##''                                '''############,,,,        ,,,,,,###''
      ,#''                                            '''#######################'''  
     '                                                          ''''####''''         
             ,#######,   #######,   ,#######,      ##                                
            ,#'     '#,  ##    ##  ,#'     '#,    #''#        ,####,   ,####,        
            ##       ##  ##   ,#'  ##            #'  '#       #'       #'  '#        
            ##       ##  #######   ##           ,######,      #####,   #    #        
            '#,     ,#'  ##    ##  '#,     ,#' ,#      #,     #,   #   #,  ,#        
             '#######'   ##     ##  '#######'  #'      '#     '####' # '####'        



                #########################################################
                #                        -***-                          #
                #          Department of theory and spectroscopy        #
                #                                                       #
                #                      Frank Neese                      #
                #                                                       #
                #     Directorship, Architecture, Infrastructure        #
                #                    SHARK, DRIVERS                     #
                #        Core code/Algorithms in most modules           #
                #                                                       #
                #        Max Planck Institute fuer Kohlenforschung      #
                #                Kaiser Wilhelm Platz 1                 #
                #                 D-45470 Muelheim/Ruhr                 #
                #                      Germany                          #
                #                                                       #
                #                  All rights reserved                  #
                #                        -***-                          #
                #########################################################


                         Program Version 6.0.0  -   RELEASE  -


 With contributions from (in alphabetic order):
   Daniel Aravena         : Magnetic Suceptibility
   Michael Atanasov       : Ab Initio Ligand Field Theory (pilot matlab implementation)
   Alexander A. Auer      : GIAO ZORA, VPT2 properties, NMR spectrum
   Ute Becker             : All parallelization in ORCA, NUMFREQ, NUMCALC
   Giovanni Bistoni       : ED, misc. LED, open-shell LED, HFLD
   Martin Brehm           : Molecular dynamics
   Dmytro Bykov           : pre 5.0 version of the SCF Hessian
   Marcos Casanova-Páez   : Triplet and SCS-CIS(D). UHF-(DLPNO)-IP/EA/STEOM-CCSD. UHF-CVS-IP/STEOM-CCSD
   Vijay G. Chilkuri      : MRCI spin determinant printing, contributions to CSF-ICE
   Pauline Colinet        : FMM embedding
   Dipayan Datta          : RHF DLPNO-CCSD density
   Achintya Kumar Dutta   : EOM-CC, STEOM-CC
   Nicolas Foglia         : Exact transition moments, OPA infrastructure, MCD improvements
   Dmitry Ganyushin       : Spin-Orbit,Spin-Spin,Magnetic field MRCI
   Miquel Garcia          : C-PCM and meta-GGA Hessian, CCSD/C-PCM, Gaussian charge scheme
   Tiago L. C. Gouveia    : GS-ROHF, GS-ROCIS
   Yang Guo               : DLPNO-NEVPT2, F12-NEVPT2, CIM, IAO-localization
   Andreas Hansen         : Spin unrestricted coupled pair/coupled cluster methods
   Ingolf Harden          : AUTO-CI MPn and infrastructure 
   Benjamin Helmich-Paris : MC-RPA, TRAH-(SCF,CASSCF), AVAS, COSX integrals, SCF dyn. polar.
   Lee Huntington         : MR-EOM, pCC
   Robert Izsak           : Overlap fitted RIJCOSX, COSX-SCS-MP3, EOM
   Riya Kayal             : Wick's Theorem for AUTO-CI, AUTO-CI UHF-CCSDT
   Emily Kempfer          : AUTO-CI, RHF CISDT and CCSDT
   Christian Kollmar      : KDIIS, OOCD, Brueckner-CCSD(T), CCSD density, CASPT2, CASPT2-K, improved NEVPT2
   Axel Koslowski         : Symmetry handling
   Simone Kossmann        : Meta GGA functionals, TD-DFT gradient, OOMP2, (MP2 Hessian; deprecated post 5.0)
   Lucas Lang             : DCDCAS
   Marvin Lechner         : AUTO-CI (C++ implementation), FIC-MRCC
   Spencer Leger          : CASSCF response
   Dagmar Lenk            : GEPOL surface, SMD, ORCA-2-JSON
   Dimitrios Liakos       : Extrapolation schemes; Compound Job, initial MDCI parallelization
   Dimitrios Manganas     : Further ROCIS development; embedding schemes. LFT, Crystal Embedding
   Dimitrios Pantazis     : SARC Basis sets
   Anastasios Papadopoulos: AUTO-CI, single reference methods and gradients
   Taras Petrenko         : pre 6.0 DFT Hessian and TD-DFT gradient, (ASA, deprecated), ECA, 1-Electron XAS/XES, NRVS
   Peter Pinski           : DLPNO-MP2, DLPNO-MP2 Gradient
   Christoph Reimann      : Effective Core Potentials
   Marius Retegan         : Local ZFS, SOC
   Christoph Riplinger    : Optimizer, TS searches, QM/MM, DLPNO-CCSD(T), (RO)-DLPNO pert. Triples
   Michael Roemelt        : Original ROCIS implementation
   Masaaki Saitow         : Open-shell DLPNO-CCSD energy and density
   Barbara Sandhoefer     : DKH picture change effects
   Kantharuban Sivalingam : CASSCF convergence/infrastructure, NEVPT2 and variants, FIC-MRCI
   Bernardo de Souza      : ESD, SOC TD-DFT
   Georgi Stoychev        : AutoAux, RI-MP2 NMR, DLPNO-MP2 response, X2C
   Van Anh Tran           : RI-MP2 g-tensors
   Willem Van den Heuvel  : Paramagnetic NMR
   Zikuan Wang            : NOTCH, Electric field optimization 
   Frank Wennmohs         : Technical directorship and infrastructure
   Hang Xu                : AUTO-CI-Response properties 


 We gratefully acknowledge several colleagues who have allowed us to
 interface, adapt or use parts of their codes:
   Stefan Grimme, W. Hujo, H. Kruse, P. Pracht,  : VdW corrections, initial TS optimization,
                  C. Bannwarth, S. Ehlert,         DFT functionals, gCP, sTDA/sTD-DF
                  L. Wittmann, M. Mueller
   Ed Valeev, F. Pavosevic, A. Kumar             : LibInt (2-el integral package), F12 methods
   Garnet Chan, S. Sharma, J. Yang, R. Olivares  : DMRG
   Ulf Ekstrom                                   : XCFun DFT Library
   Mihaly Kallay                                 : mrcc  (arbitrary order and MRCC methods)
   Frank Weinhold                                : gennbo (NPA and NBO analysis)
   Simon Mueller                                 : openCOSMO-RS
   Christopher J. Cramer and Donald G. Truhlar   : smd solvation model
   Lars Goerigk                                  : TD-DFT with DH, B97 family of functionals
   V. Asgeirsson, H. Jonsson                     : NEB implementation
   FAccTs GmbH                                   : IRC, NEB, NEB-TS, DLPNO-Multilevel, CI-OPT
                                                   MM, QMMM, 2- and 3-layer-ONIOM, Crystal-QMMM,
                                                   LR-CPCM, SF, NACMEs, symmetry and pop. for TD-DFT,
                                                   nearIR, NL-DFT gradient (VV10), updates on ESD,
                                                   ML-optimized integration grids, MBIS, APM,
                                                   GOAT, DOCKER, SOLVATOR, interface openCOSMO-RS
   S Lehtola, MJT Oliveira, MAL Marques          : LibXC Library
   Liviu Ungur et al                             : ANISO software


 Your calculation uses the libint2 library for the computation of 2-el integrals
 For citations please refer to: http://libint.valeyev.net

 Your ORCA version has been built with support for libXC version: 6.2.2
 For citations please refer to: https://libxc.gitlab.io

 This ORCA versions uses:
   CBLAS   interface :  Fast vector & matrix operations
   LAPACKE interface :  Fast linear algebra routines
   SCALAPACK package :  Parallel linear algebra routines
   Shared memory     :  Shared parallel matrices
   BLAS/LAPACK       :  OpenBLAS 0.3.27  USE64BITINT DYNAMIC_ARCH NO_AFFINITY Zen SINGLE_THREADED
        Core in use  :  Zen
   Copyright (c) 2011-2014, The OpenBLAS Project


Your calculation utilizes the atom-pairwise dispersion correction
with the Becke-Johnson damping scheme (D3BJ)


Warning: RI is on but no J-basis has been assigned. Assigning Def2/J (nothing to worry about!)
================================================================================

----- Orbital basis set information -----
Your calculation utilizes the basis: def2-TZVPPD
   F. Weigend and R. Ahlrichs, Phys. Chem. Chem. Phys. 7, 3297 (2005).
   D. Rappoport and F. Furche, J. Chem. Phys. 133, 134105 (2010)
   D. Rappoport, J. Chem. Phys. 155, 124102 (2021).

----- AuxJ basis set information -----
Your calculation utilizes the auxiliary basis: def2/J
   F. Weigend, Phys. Chem. Chem. Phys. 8, 1057 (2006).

================================================================================
                                        WARNINGS
                       Please study these warnings very carefully!
================================================================================

Using LibXC functional ID 531 : wB97M-V exchange-correlation functional
[ 1]  N. Mardirossian and M. Head-Gordon.,  J. Chem. Phys. 144, 214110 (2016)
Using LibXC functional ID 531 : wB97M-V exchange-correlation functional
[ 1]  N. Mardirossian and M. Head-Gordon.,  J. Chem. Phys. 144, 214110 (2016)

WARNING: B97M-V or wB97M-V functional requested.
  ===> : libXC variant has now been activated.
         Any manually given DFX/HFX/RangeSep scaling parameters are IGNORED!

Your calculation utilizes LibXC
 by S Lehtola, C Steigemann, MJT Oliveira & MAL Marques
Please cite in your paper:
 S Lehtola, C Steigemann, MJT Oliveira & MAL Marques, SoftwareX, 7, (2018), 1.
   


WARNING: your system is open-shell and RHF/RKS was chosen
  ===> : WILL SWITCH to UHF/UKS

INFO   : Checking CIS options ...

WARNING: CIS/ROCIS methods need fully converged wavefunctions
  ===> : Setting SCFConvForced true
         You can overwrite this default with %scf ConvForced false 


================================================================================
                                       INPUT FILE
================================================================================
NAME = orca.inp
|  1> ! Engrad def2-TZVPPD wB97M-D3BJ 
|  2> %pal nprocs 8 end%pal nprocs 64 end 
|  3> %tddft Nroots 2 Iroot 2 
|  4> sf true 
|  5> end 
|  6> *xyz 0 3 
|  7> O   2.93340927 0.4439273 -1.01108504
|  8> O   -0.31416208 1.41349787 -2.34523429
|  9> O   0.17590087 -3.08175297 -0.3345311
| 10> O   -3.08148447 -1.56259146 -0.34546029
| 11> N   0.22541925 -1.50676686 1.18867061
| 12> N   -2.02311823 -0.07431212 1.0481474
| 13> N   1.58473688 -1.31307487 -0.64855429
| 14> N   -1.41041203 -0.23083424 -1.23346234
| 15> C   1.65425219 0.43507892 0.99304947
| 16> C   -0.72046241 1.61156715 -0.01163169
| 17> C   0.39584936 -0.1714031 1.58085145
| 18> C   -0.89350108 0.78853917 1.19401119
| 19> C   2.22645272 1.64084316 1.60129874
| 20> C   -0.56390233 3.0591306 0.08950043
| 21> C   2.11930271 -0.06925308 -0.27855279
| 22> C   -0.77353881 0.98062818 -1.32400175
| 23> C   0.65110269 -2.0278823 0.0366938
| 24> C   -2.22926868 -0.69403568 -0.19646857
| 25> H   0.55093308 -0.04624064 2.70197399
| 26> H   -1.03176846 1.49941757 2.04070354
| 27> H   3.1925708 1.77588737 1.29178766
| 28> H   1.66161189 2.48700373 1.30529296
| 29> H   2.16472172 1.55890934 2.68429579
| 30> H   -1.46342459 3.63536953 -0.22166129
| 31> H   -0.28367659 3.2563069 1.09970119
| 32> H   0.20514653 3.43033194 -0.49544195
| 33> H   -0.54901749 -1.98669028 1.6139969
| 34> H   -2.87998721 -0.00482921 1.60866244
| 35> H   1.88632255 -1.73578774 -1.55299065
| 36> H   -1.28084513 -0.89821466 -2.03176806
| 37> *
| 38> 
| 39>                          ****END OF INPUT****
================================================================================

                     *******************************
                     * Energy+Gradient Calculation *
                     *******************************

---------------------------------
CARTESIAN COORDINATES (ANGSTROEM)
---------------------------------
  O      2.933409    0.443927   -1.011085
  O     -0.314162    1.413498   -2.345234
  O      0.175901   -3.081753   -0.334531
  O     -3.081484   -1.562591   -0.345460
  N      0.225419   -1.506767    1.188671
  N     -2.023118   -0.074312    1.048147
  N      1.584737   -1.313075   -0.648554
  N     -1.410412   -0.230834   -1.233462
  C      1.654252    0.435079    0.993049
  C     -0.720462    1.611567   -0.011632
  C      0.395849   -0.171403    1.580851
  C     -0.893501    0.788539    1.194011
  C      2.226453    1.640843    1.601299
  C     -0.563902    3.059131    0.089500
  C      2.119303   -0.069253   -0.278553
  C     -0.773539    0.980628   -1.324002
  C      0.651103   -2.027882    0.036694
  C     -2.229269   -0.694036   -0.196469
  H      0.550933   -0.046241    2.701974
  H     -1.031768    1.499418    2.040704
  H      3.192571    1.775887    1.291788
  H      1.661612    2.487004    1.305293
  H      2.164722    1.558909    2.684296
  H     -1.463425    3.635370   -0.221661
  H     -0.283677    3.256307    1.099701
  H      0.205147    3.430332   -0.495442
  H     -0.549017   -1.986690    1.613997
  H     -2.879987   -0.004829    1.608662
  H      1.886323   -1.735788   -1.552991
  H     -1.280845   -0.898215   -2.031768

----------------------------
CARTESIAN COORDINATES (A.U.)
----------------------------
  NO LB      ZA    FRAG     MASS         X           Y           Z
   0 O     8.0000    0    15.999    5.543340    0.838901   -1.910674
   1 O     8.0000    0    15.999   -0.593680    2.671124   -4.431851
   2 O     8.0000    0    15.999    0.332404   -5.823669   -0.632172
   3 O     8.0000    0    15.999   -5.823162   -2.952870   -0.652825
   4 N     7.0000    0    14.007    0.425981   -2.847377    2.246262
   5 N     7.0000    0    14.007   -3.823139   -0.140430    1.980712
   6 N     7.0000    0    14.007    2.994719   -2.481352   -1.225590
   7 N     7.0000    0    14.007   -2.665292   -0.436213   -2.330906
   8 C     6.0000    0    12.011    3.126084    0.822180    1.876592
   9 C     6.0000    0    12.011   -1.361477    3.045421   -0.021981
  10 C     6.0000    0    12.011    0.748047   -0.323905    2.987376
  11 C     6.0000    0    12.011   -1.688472    1.490123    2.256354
  12 C     6.0000    0    12.011    4.207386    3.100744    3.026016
  13 C     6.0000    0    12.011   -1.065621    5.780919    0.169131
  14 C     6.0000    0    12.011    4.004902   -0.130869   -0.526388
  15 C     6.0000    0    12.011   -1.461777    1.853119   -2.502001
  16 C     6.0000    0    12.011    1.230406   -3.832142    0.069341
  17 C     6.0000    0    12.011   -4.212707   -1.311537   -0.371272
  18 H     1.0000    0     1.008    1.041113   -0.087382    5.105991
  19 H     1.0000    0     1.008   -1.949760    2.833489    3.856371
  20 H     1.0000    0     1.008    6.033084    3.355941    2.441125
  21 H     1.0000    0     1.008    3.139991    4.699756    2.466646
  22 H     1.0000    0     1.008    4.090731    2.945912    5.072584
  23 H     1.0000    0     1.008   -2.765472    6.869853   -0.418879
  24 H     1.0000    0     1.008   -0.536071    6.153528    2.078134
  25 H     1.0000    0     1.008    0.387671    6.482388   -0.936250
  26 H     1.0000    0     1.008   -1.037493   -3.754301    3.050012
  27 H     1.0000    0     1.008   -5.442387   -0.009126    3.039931
  28 H     1.0000    0     1.008    3.564633   -3.280163   -2.934727
  29 H     1.0000    0     1.008   -2.420447   -1.697380   -3.839485

--------------------------------
INTERNAL COORDINATES (ANGSTROEM)
--------------------------------
 O      0   0   0     0.000000000000     0.00000000     0.00000000
 O      1   0   0     3.642353769862     0.00000000     0.00000000
 O      1   2   0     4.526808939647    73.67651777     0.00000000
 O      3   1   2     3.594235717633   102.85095478   336.67188131
 N      3   1   2     2.191615104437    61.99163671   273.28576484
 N      4   3   1     2.297228087385    81.63068248   313.35444480
 N      1   2   3     2.244415822799    74.44151497   359.57281220
 N      2   1   3     2.267516021919    93.34973670    17.00809472
 C      1   2   3     2.377577814356    80.21511030   295.61375628
 C      8   2   1     2.315889353422    62.46688213    75.60332091
 C      5   3   1     1.402158552083   151.82964523    30.26157860
 C      6   4   3     1.428923895616   144.81995331    53.05990383
 C      9   1   2     1.466713340585    97.85206229   251.84825552
 C     10   8   2     1.459513174357   149.04253080    41.67500103
 C      1   2   3     1.209432549067    74.61113804   324.83885040
 C      2   1   3     1.200549478090    86.19328446    46.45488800
 C      3   1   2     1.214194418204    29.69029090   271.71976219
 C      4   3   1     1.225911672318    70.67479283   343.80359961
 H     11   5   3     1.138697655789   113.36680886   195.93704593
 H     12   6   4     1.114160627337   111.39198114   165.37563319
 H     13   9   1     1.023434507822   110.56903846   331.01335483
 H     13   9   1     1.059552875156   109.43221908    90.17770383
 H     13   9   1     1.087844877512   109.19587198   208.12649668
 H     14  10   8     1.112660422895   114.05128916    46.07241328
 H     14  10   8     1.066728894399   106.08883788   170.37092388
 H     14  10   8     1.035076891736   113.34251839   286.13866195
 H      5   3   1     1.005475611982    86.19161852   172.28718596
 H      6   4   3     1.026269669110    89.45723290   217.74730786
 H      7   1   2     1.042902304199    90.19781120    92.91560503
 H      8   2   1     1.048559120489    91.63462476   270.13766373

---------------------------
INTERNAL COORDINATES (A.U.)
---------------------------
 O      0   0   0     0.000000000000     0.00000000     0.00000000
 O      1   0   0     6.883051107894     0.00000000     0.00000000
 O      1   2   0     8.554429156519    73.67651777     0.00000000
 O      3   1   2     6.792121167084   102.85095478   336.67188131
 N      3   1   2     4.141552338352    61.99163671   273.28576484
 N      4   3   1     4.341131952309    81.63068248   313.35444480
 N      1   2   3     4.241331235729    74.44151497   359.57281220
 N      2   1   3     4.284984285705    93.34973670    17.00809472
 C      1   2   3     4.492970931219    80.21511030   295.61375628
 C      8   2   1     4.376396634431    62.46688213    75.60332091
 C      5   3   1     2.649695659772   151.82964523    30.26157860
 C      6   4   3     2.700274828930   144.81995331    53.05990383
 C      9   1   2     2.771686530675    97.85206229   251.84825552
 C     10   8   2     2.758080188385   149.04253080    41.67500103
 C      1   2   3     2.285496295186    74.61113804   324.83885040
 C      2   1   3     2.268709723811    86.19328446    46.45488800
 C      3   1   2     2.294494923741    29.69029090   271.71976219
 C      4   3   1     2.316637325058    70.67479283   343.80359961
 H     11   5   3     2.151826718778   113.36680886   195.93704593
 H     12   6   4     2.105458454864   111.39198114   165.37563319
 H     13   9   1     1.934010935787   110.56903846   331.01335483
 H     13   9   1     2.002264758454   109.43221908    90.17770383
 H     13   9   1     2.055728894687   109.19587198   208.12649668
 H     14  10   8     2.102623479324   114.05128916    46.07241328
 H     14  10   8     2.015825469554   106.08883788   170.37092388
 H     14  10   8     1.956011852931   113.34251839   286.13866195
 H      5   3   1     1.900073540984    86.19161852   172.28718596
 H      6   4   3     1.939368614167    89.45723290   217.74730786
 H      7   1   2     1.970799739371    90.19781120    92.91560503
 H      8   2   1     1.981489572949    91.63462476   270.13766373

---------------------
BASIS SET INFORMATION
---------------------
There are 4 groups of distinct atoms

 Group   1 Type O   : 12s7p3d1f contracted to 6s4p3d1f pattern {621111/4111/111/1}
 Group   2 Type N   : 12s6p3d1f contracted to 6s3p3d1f pattern {621111/411/111/1}
 Group   3 Type C   : 12s6p3d1f contracted to 6s3p3d1f pattern {621111/411/111/1}
 Group   4 Type H   : 5s3p1d contracted to 3s3p1d pattern {311/111/1}

Atom   0O    basis set group =>   1
Atom   1O    basis set group =>   1
Atom   2O    basis set group =>   1
Atom   3O    basis set group =>   1
Atom   4N    basis set group =>   2
Atom   5N    basis set group =>   2
Atom   6N    basis set group =>   2
Atom   7N    basis set group =>   2
Atom   8C    basis set group =>   3
Atom   9C    basis set group =>   3
Atom  10C    basis set group =>   3
Atom  11C    basis set group =>   3
Atom  12C    basis set group =>   3
Atom  13C    basis set group =>   3
Atom  14C    basis set group =>   3
Atom  15C    basis set group =>   3
Atom  16C    basis set group =>   3
Atom  17C    basis set group =>   3
Atom  18H    basis set group =>   4
Atom  19H    basis set group =>   4
Atom  20H    basis set group =>   4
Atom  21H    basis set group =>   4
Atom  22H    basis set group =>   4
Atom  23H    basis set group =>   4
Atom  24H    basis set group =>   4
Atom  25H    basis set group =>   4
Atom  26H    basis set group =>   4
Atom  27H    basis set group =>   4
Atom  28H    basis set group =>   4
Atom  29H    basis set group =>   4
---------------------------------
AUXILIARY/J BASIS SET INFORMATION
---------------------------------
There are 4 groups of distinct atoms

 Group   1 Type O   : 12s5p4d2f1g contracted to 6s4p3d1f1g pattern {711111/2111/211/2/1}
 Group   2 Type N   : 12s5p4d2f1g contracted to 6s4p3d1f1g pattern {711111/2111/211/2/1}
 Group   3 Type C   : 12s5p4d2f1g contracted to 6s4p3d1f1g pattern {711111/2111/211/2/1}
 Group   4 Type H   : 5s2p1d contracted to 3s1p1d pattern {311/2/1}

Atom   0O    basis set group =>   1
Atom   1O    basis set group =>   1
Atom   2O    basis set group =>   1
Atom   3O    basis set group =>   1
Atom   4N    basis set group =>   2
Atom   5N    basis set group =>   2
Atom   6N    basis set group =>   2
Atom   7N    basis set group =>   2
Atom   8C    basis set group =>   3
Atom   9C    basis set group =>   3
Atom  10C    basis set group =>   3
Atom  11C    basis set group =>   3
Atom  12C    basis set group =>   3
Atom  13C    basis set group =>   3
Atom  14C    basis set group =>   3
Atom  15C    basis set group =>   3
Atom  16C    basis set group =>   3
Atom  17C    basis set group =>   3
Atom  18H    basis set group =>   4
Atom  19H    basis set group =>   4
Atom  20H    basis set group =>   4
Atom  21H    basis set group =>   4
Atom  22H    basis set group =>   4
Atom  23H    basis set group =>   4
Atom  24H    basis set group =>   4
Atom  25H    basis set group =>   4
Atom  26H    basis set group =>   4
Atom  27H    basis set group =>   4
Atom  28H    basis set group =>   4
Atom  29H    basis set group =>   4
[1739907612.012645] [ohm:411875:0]        ib_iface.c:1059 UCX  ERROR ibv_create_cq(cqe=256) failed: Connection timed out
[1739907612.020661] [ohm:411861:0]        ib_iface.c:1059 UCX  ERROR ibv_create_cq(cqe=256) failed: Connection timed out
[1739907612.026303] [ohm:411869:0]        ib_iface.c:1059 UCX  ERROR ibv_create_cq(cqe=256) failed: Connection timed out
[1739907612.041198] [ohm:411860:0]        ib_iface.c:1059 UCX  ERROR ibv_create_cq(cqe=256) failed: Connection timed out
[1739907612.041210] [ohm:411863:0]        ib_iface.c:1059 UCX  ERROR ibv_create_cq(cqe=256) failed: Connection timed out
[1739907612.041948] [ohm:411865:0]        ib_iface.c:1059 UCX  ERROR ibv_create_cq(cqe=256) failed: Connection timed out
[1739907612.044922] [ohm:411859:0]        ib_iface.c:1059 UCX  ERROR ibv_create_cq(cqe=256) failed: Connection timed out
[1739907612.054853] [ohm:411867:0]        ib_iface.c:1059 UCX  ERROR ibv_create_cq(cqe=256) failed: Connection timed out
[1739907612.054965] [ohm:411884:0]        ib_iface.c:1059 UCX  ERROR ibv_create_cq(cqe=256) failed: Connection timed out
[1739907612.062916] [ohm:411871:0]        ib_iface.c:1059 UCX  ERROR ibv_create_cq(cqe=256) failed: Connection timed out
[1739907612.071403] [ohm:411866:0]        ib_iface.c:1059 UCX  ERROR ibv_create_cq(cqe=256) failed: Connection timed out
[1739907612.109198] [ohm:411876:0]        ib_iface.c:1059 UCX  ERROR ibv_create_cq(cqe=256) failed: Connection timed out
[1739907612.124866] [ohm:411868:0]        ib_iface.c:1059 UCX  ERROR ibv_create_cq(cqe=256) failed: Connection timed out
[1739907612.133074] [ohm:411870:0]        ib_iface.c:1059 UCX  ERROR ibv_create_cq(cqe=256) failed: Connection timed out
[1739907612.138873] [ohm:411864:0]        ib_iface.c:1059 UCX  ERROR ibv_create_cq(cqe=256) failed: Connection timed out
[1739907612.143481] [ohm:411873:0]        ib_iface.c:1059 UCX  ERROR ibv_create_cq(cqe=256) failed: Connection timed out
[1739907612.144243] [ohm:411905:0]        ib_iface.c:1059 UCX  ERROR ibv_create_cq(cqe=256) failed: Connection timed out
[1739907612.149382] [ohm:411874:0]        ib_iface.c:1059 UCX  ERROR ibv_create_cq(cqe=256) failed: Connection timed out
[1739907612.150041] [ohm:411897:0]        ib_iface.c:1059 UCX  ERROR ibv_create_cq(cqe=256) failed: Connection timed out
[1739907612.151077] [ohm:411880:0]        ib_iface.c:1059 UCX  ERROR ibv_create_cq(cqe=256) failed: Connection timed out
[1739907612.155681] [ohm:411890:0]        ib_iface.c:1059 UCX  ERROR ibv_create_cq(cqe=256) failed: Connection timed out
[1739907612.155774] [ohm:411872:0]        ib_iface.c:1059 UCX  ERROR ibv_create_cq(cqe=256) failed: Connection timed out
[1739907612.183983] [ohm:411992:0]        ib_iface.c:1059 UCX  ERROR ibv_create_cq(cqe=256) failed: Connection timed out
[1739907612.184517] [ohm:411913:0]        ib_iface.c:1059 UCX  ERROR ibv_create_cq(cqe=256) failed: Connection timed out
[1739907612.211065] [ohm:411938:0]        ib_iface.c:1059 UCX  ERROR ibv_create_cq(cqe=256) failed: Connection timed out
[1739907612.211063] [ohm:411950:0]        ib_iface.c:1059 UCX  ERROR ibv_create_cq(cqe=256) failed: Connection timed out
[1739907612.220600] [ohm:411881:0]        ib_iface.c:1059 UCX  ERROR ibv_create_cq(cqe=256) failed: Connection timed out
[1739907612.237859] [ohm:411922:0]        ib_iface.c:1059 UCX  ERROR ibv_create_cq(cqe=256) failed: Connection timed out
[1739907612.238361] [ohm:411895:0]        ib_iface.c:1059 UCX  ERROR ibv_create_cq(cqe=256) failed: Connection timed out
[1739907612.238345] [ohm:411984:0]        ib_iface.c:1059 UCX  ERROR ibv_create_cq(cqe=256) failed: Connection timed out
[1739907612.248606] [ohm:411886:0]        ib_iface.c:1059 UCX  ERROR ibv_create_cq(cqe=256) failed: Connection timed out
[1739907612.249176] [ohm:411969:0]        ib_iface.c:1059 UCX  ERROR ibv_create_cq(cqe=256) failed: Connection timed out
[1739907612.254559] [ohm:411909:0]        ib_iface.c:1059 UCX  ERROR ibv_create_cq(cqe=256) failed: Connection timed out
[1739907612.260504] [ohm:412001:0]        ib_iface.c:1059 UCX  ERROR ibv_create_cq(cqe=256) failed: Connection timed out
[1739907612.260994] [ohm:411981:0]        ib_iface.c:1059 UCX  ERROR ibv_create_cq(cqe=256) failed: Connection timed out
[1739907612.261303] [ohm:411954:0]        ib_iface.c:1059 UCX  ERROR ibv_create_cq(cqe=256) failed: Connection timed out
[1739907612.271928] [ohm:411961:0]        ib_iface.c:1059 UCX  ERROR ibv_create_cq(cqe=256) failed: Connection timed out
[1739907612.282953] [ohm:411923:0]        ib_iface.c:1059 UCX  ERROR ibv_create_cq(cqe=256) failed: Connection timed out
[1739907612.286893] [ohm:411978:0]        ib_iface.c:1059 UCX  ERROR ibv_create_cq(cqe=256) failed: Connection timed out
[1739907612.298896] [ohm:411908:0]        ib_iface.c:1059 UCX  ERROR ibv_create_cq(cqe=256) failed: Connection timed out
[1739907612.302602] [ohm:411882:0]        ib_iface.c:1059 UCX  ERROR ibv_create_cq(cqe=256) failed: Connection timed out
[1739907612.303131] [ohm:411999:0]        ib_iface.c:1059 UCX  ERROR ibv_create_cq(cqe=256) failed: Connection timed out
[1739907612.304749] [ohm:411990:0]        ib_iface.c:1059 UCX  ERROR ibv_create_cq(cqe=256) failed: Connection timed out
[1739907612.305298] [ohm:411943:0]        ib_iface.c:1059 UCX  ERROR ibv_create_cq(cqe=256) failed: Connection timed out
[1739907612.310081] [ohm:411862:0]        ib_iface.c:1059 UCX  ERROR ibv_create_cq(cqe=256) failed: Connection timed out
[1739907612.312729] [ohm:411879:0]        ib_iface.c:1059 UCX  ERROR ibv_create_cq(cqe=256) failed: Connection timed out
[1739907612.313786] [ohm:411878:0]        ib_iface.c:1059 UCX  ERROR ibv_create_cq(cqe=256) failed: Connection timed out
[1739907612.314975] [ohm:411996:0]        ib_iface.c:1059 UCX  ERROR ibv_create_cq(cqe=256) failed: Connection timed out
[1739907612.315033] [ohm:411885:0]        ib_iface.c:1059 UCX  ERROR ibv_create_cq(cqe=256) failed: Connection timed out
[1739907612.316962] [ohm:411933:0]        ib_iface.c:1059 UCX  ERROR ibv_create_cq(cqe=256) failed: Connection timed out
[1739907612.323108] [ohm:411877:0]        ib_iface.c:1059 UCX  ERROR ibv_create_cq(cqe=256) failed: Connection timed out
[1739907612.323821] [ohm:411887:0]        ib_iface.c:1059 UCX  ERROR ibv_create_cq(cqe=256) failed: Connection timed out
[1739907612.334756] [ohm:411965:0]        ib_iface.c:1059 UCX  ERROR ibv_create_cq(cqe=256) failed: Connection timed out
[1739907612.334999] [ohm:411916:0]        ib_iface.c:1059 UCX  ERROR ibv_create_cq(cqe=256) failed: Connection timed out
[1739907612.336965] [ohm:411889:0]        ib_iface.c:1059 UCX  ERROR ibv_create_cq(cqe=256) failed: Connection timed out
[1739907612.337439] [ohm:411948:0]        ib_iface.c:1059 UCX  ERROR ibv_create_cq(cqe=256) failed: Connection timed out
[1739907612.337591] [ohm:411883:0]        ib_iface.c:1059 UCX  ERROR ibv_create_cq(cqe=256) failed: Connection timed out
[1739907612.337682] [ohm:411930:0]        ib_iface.c:1059 UCX  ERROR ibv_create_cq(cqe=256) failed: Connection timed out
[1739907612.338597] [ohm:411941:0]        ib_iface.c:1059 UCX  ERROR ibv_create_cq(cqe=256) failed: Connection timed out
[1739907612.339817] [ohm:411974:0]        ib_iface.c:1059 UCX  ERROR ibv_create_cq(cqe=256) failed: Connection timed out
[1739907612.339816] [ohm:411985:0]        ib_iface.c:1059 UCX  ERROR ibv_create_cq(cqe=256) failed: Connection timed out
[1739907612.341968] [ohm:412007:0]        ib_iface.c:1059 UCX  ERROR ibv_create_cq(cqe=256) failed: Connection timed out
[1739907612.342093] [ohm:411955:0]        ib_iface.c:1059 UCX  ERROR ibv_create_cq(cqe=256) failed: Connection timed out
[1739907612.343447] [ohm:411960:0]        ib_iface.c:1059 UCX  ERROR ibv_create_cq(cqe=256) failed: Connection timed out


           ************************************************************
           *        Program running with 64 parallel MPI-processes    *
           *              working on a common directory               *
           ************************************************************
------------------------------------------------------------------------------
                             ORCA STARTUP CALCULATIONS
                           -- RI-GTO INTEGRALS CHOSEN --
------------------------------------------------------------------------------
------------------------------------------------------------------------------
                   ___                                                        
                  /   \      - P O W E R E D   B Y -                         
                 /     \                                                     
                 |  |  |   _    _      __       _____    __    __             
                 |  |  |  | |  | |    /  \     |  _  \  |  |  /  |          
                  \  \/   | |  | |   /    \    | | | |  |  | /  /          
                 / \  \   | |__| |  /  /\  \   | |_| |  |  |/  /          
                |  |  |   |  __  | /  /__\  \  |    /   |      \           
                |  |  |   | |  | | |   __   |  |    \   |  |\   \          
                \     /   | |  | | |  |  |  |  | |\  \  |  | \   \       
                 \___/    |_|  |_| |__|  |__|  |_| \__\ |__|  \__/        
                                                                              
                      - O R C A' S   B I G   F R I E N D -                    
                                      &                                       
                       - I N T E G R A L  F E E D E R -                       
                                                                              
 v1 FN, 2020, v2 2021, v3 2022-2024                                           
------------------------------------------------------------------------------


----------------------
SHARK INTEGRAL PACKAGE
----------------------

Number of atoms                             ...     30
Number of basis functions                   ...    882
Number of shells                            ...    322
Maximum angular momentum                    ...      3
Integral batch strategy                     ... SHARK/LIBINT Hybrid
RI-J (if used) integral strategy            ... SPLIT-RIJ (Revised 2003 algorithm where possible)
Printlevel                                  ...      1
Contraction scheme used                     ... SEGMENTED contraction
Prescreening option                         ... SCHWARTZ
   Thresh                                   ... 2.500e-11
   Tcut                                     ... 2.500e-12
   Tpresel                                  ... 2.500e-12 
Coulomb Range Separation                    ... NOT USED
Exchange Range Separation                   ... Long Range
   Mu parameter                             ... 3.000e-01
   Scaling (regular/separated)              ... 1.500e-01 8.500e-01
Multipole approximations                    ... NOT USED
Finite Nucleus Model                        ... NOT USED
CABS basis                                  ... NOT available
Auxiliary Coulomb fitting basis             ... AVAILABLE
   # of basis functions in Aux-J            ...   1014
   # of shells in Aux-J                     ...    330
   Maximum angular momentum in Aux-J        ...      4
Auxiliary J/K fitting basis                 ... NOT available
Auxiliary Correlation fitting basis         ... NOT available
Auxiliary 'external' fitting basis          ... NOT available

Checking pre-screening integrals            ... done (  0.0 sec) Dimension = 322
Check shell pair data                       ... done (  0.0 sec)
Shell pair information
Shell pair cut-off parameter TPreSel        ...   2.5e-12
Total number of shell pairs                 ...     52003
Shell pairs after pre-screening             ...     45543
Total number of primitive shell pairs       ...    129718
Primitive shell pairs kept                  ...     85320
          la=0 lb=0:   8804 shell pairs
          la=1 lb=0:  12025 shell pairs
          la=1 lb=1:   4150 shell pairs
          la=2 lb=0:   8176 shell pairs
          la=2 lb=1:   5654 shell pairs
          la=2 lb=2:   1965 shell pairs
          la=3 lb=0:   2110 shell pairs
          la=3 lb=1:   1493 shell pairs
          la=3 lb=2:   1019 shell pairs
          la=3 lb=3:    147 shell pairs

Calculating one electron integrals          ... done (  0.2 sec)
Calculating RI/J V-Matrix + Cholesky decomp.... done (  0.1 sec)
Calculating Nuclear repulsion               ... done (  0.0 sec) ENN=   1473.592189228948 Eh

Diagonalization of the overlap matrix:
Smallest eigenvalue                        ... 3.754e-07
Time for diagonalization                   ...    0.124 sec
Threshold for overlap eigenvalues          ... 1.000e-07
Number of eigenvalues below threshold      ... 0

IMPORTANT:
Smallest eigenvalue of S below the DiffSThresh (1.000e-06) while
Thresh>1e-12 and/or TCut>1e-13! In order to avoid SCF convergence issues,
Thresh will be set to at least 1e-12 and TCut to at least 1e-13.
This can be turned off by adding %SCF DiffSThresh -1 END to the input.

Time for construction of square roots      ...    0.131 sec
Total time needed                          ...    0.271 sec

-------------------
DFT GRID GENERATION
-------------------

General Integration Accuracy     IntAcc      ... 4.388
Radial Grid Type                 RadialGrid  ... OptM3 with GC (2021)
Angular Grid (max. ang.)         AngularGrid ... 4 (Lebedev-302)
Angular grid pruning method      GridPruning ... 4 (adaptive)
Weight generation scheme         WeightScheme... mBecke (2022)
Basis function cutoff            BFCut       ... 1.0000e-11
Integration weight cutoff        WCut        ... 1.0000e-14
Partially contracted basis set               ... off
Rotationally invariant grid construction     ... off
Angular grids for H and He will be reduced by one unit
Diffuse basis detected: some atoms will have their outermost
                        angular grid increased by 1.

Total number of grid points                  ...   151693
Total number of batches                      ...     2387
Average number of points per batch           ...       63
Average number of grid points per atom       ...     5056

--------------------
COSX GRID GENERATION
--------------------

GRIDX 1
-------
General Integration Accuracy     IntAcc      ... 3.816
Radial Grid Type                 RadialGrid  ... OptM3 with GC (2021)
Angular Grid (max. ang.)         AngularGrid ... 1 (Lebedev-50)
Angular grid pruning method      GridPruning ... 4 (adaptive)
Weight generation scheme         WeightScheme... mBecke (2022)
Basis function cutoff            BFCut       ... 1.0000e-11
Integration weight cutoff        WCut        ... 1.0000e-14
Partially contracted basis set               ... on
Rotationally invariant grid construction     ... off
Angular grids for H and He will be reduced by one unit
Diffuse basis detected: some atoms will have their outermost
                        angular grid increased by 1.

Total number of grid points                  ...    18980
Total number of batches                      ...      165
Average number of points per batch           ...      115
Average number of grid points per atom       ...      633
UseSFitting                                  ... on

GRIDX 2
-------
General Integration Accuracy     IntAcc      ... 4.020
Radial Grid Type                 RadialGrid  ... OptM3 with GC (2021)
Angular Grid (max. ang.)         AngularGrid ... 2 (Lebedev-110)
Angular grid pruning method      GridPruning ... 4 (adaptive)
Weight generation scheme         WeightScheme... mBecke (2022)
Basis function cutoff            BFCut       ... 1.0000e-11
Integration weight cutoff        WCut        ... 1.0000e-14
Partially contracted basis set               ... on
Rotationally invariant grid construction     ... off
Angular grids for H and He will be reduced by one unit
Diffuse basis detected: some atoms will have their outermost
                        angular grid increased by 1.

Total number of grid points                  ...    45685
Total number of batches                      ...      369
Average number of points per batch           ...      123
Average number of grid points per atom       ...     1523
UseSFitting                                  ... on

GRIDX 3
-------
General Integration Accuracy     IntAcc      ... 4.338
Radial Grid Type                 RadialGrid  ... OptM3 with GC (2021)
Angular Grid (max. ang.)         AngularGrid ... 3 (Lebedev-194)
Angular grid pruning method      GridPruning ... 4 (adaptive)
Weight generation scheme         WeightScheme... mBecke (2022)
Basis function cutoff            BFCut       ... 1.0000e-11
Integration weight cutoff        WCut        ... 1.0000e-14
Partially contracted basis set               ... on
Rotationally invariant grid construction     ... off
Angular grids for H and He will be reduced by one unit
Diffuse basis detected: some atoms will have their outermost
                        angular grid increased by 1.

Total number of grid points                  ...   100599
Total number of batches                      ...      801
Average number of points per batch           ...      125
Average number of grid points per atom       ...     3353
UseSFitting                                  ... on
Initializing property integral containers    ... done (  0.0 sec)

SHARK setup successfully completed in   4.3 seconds

Maximum memory used throughout the entire STARTUP-calculation: 80.7 MB
[1739907618.510927] [ohm:412224:0]        ib_iface.c:1059 UCX  ERROR ibv_create_cq(cqe=256) failed: Connection timed out
[1739907618.520529] [ohm:412220:0]        ib_iface.c:1059 UCX  ERROR ibv_create_cq(cqe=256) failed: Connection timed out
[1739907618.532866] [ohm:412218:0]        ib_iface.c:1059 UCX  ERROR ibv_create_cq(cqe=256) failed: Connection timed out
[1739907618.610638] [ohm:412219:0]        ib_iface.c:1059 UCX  ERROR ibv_create_cq(cqe=256) failed: Connection timed out
[1739907618.616013] [ohm:412226:0]        ib_iface.c:1059 UCX  ERROR ibv_create_cq(cqe=256) failed: Connection timed out
[1739907618.616071] [ohm:412229:0]        ib_iface.c:1059 UCX  ERROR ibv_create_cq(cqe=256) failed: Connection timed out
[1739907618.623748] [ohm:412221:0]        ib_iface.c:1059 UCX  ERROR ibv_create_cq(cqe=256) failed: Connection timed out
[1739907618.626472] [ohm:412217:0]        ib_iface.c:1059 UCX  ERROR ibv_create_cq(cqe=256) failed: Connection timed out
[1739907618.627069] [ohm:412225:0]        ib_iface.c:1059 UCX  ERROR ibv_create_cq(cqe=256) failed: Connection timed out
[1739907618.629321] [ohm:412223:0]        ib_iface.c:1059 UCX  ERROR ibv_create_cq(cqe=256) failed: Connection timed out
[1739907618.631130] [ohm:412230:0]        ib_iface.c:1059 UCX  ERROR ibv_create_cq(cqe=256) failed: Connection timed out
[1739907618.631423] [ohm:412222:0]        ib_iface.c:1059 UCX  ERROR ibv_create_cq(cqe=256) failed: Connection timed out
[1739907618.638025] [ohm:412228:0]        ib_iface.c:1059 UCX  ERROR ibv_create_cq(cqe=256) failed: Connection timed out
[1739907618.668789] [ohm:412295:0]        ib_iface.c:1059 UCX  ERROR ibv_create_cq(cqe=256) failed: Connection timed out
[1739907618.683661] [ohm:412238:0]        ib_iface.c:1059 UCX  ERROR ibv_create_cq(cqe=256) failed: Connection timed out
[1739907618.721106] [ohm:412254:0]        ib_iface.c:1059 UCX  ERROR ibv_create_cq(cqe=256) failed: Connection timed out
[1739907618.729243] [ohm:412350:0]        ib_iface.c:1059 UCX  ERROR ibv_create_cq(cqe=256) failed: Connection timed out
[1739907618.738589] [ohm:412357:0]        ib_iface.c:1059 UCX  ERROR ibv_create_cq(cqe=256) failed: Connection timed out
[1739907618.749476] [ohm:412318:0]        ib_iface.c:1059 UCX  ERROR ibv_create_cq(cqe=256) failed: Connection timed out
[1739907618.750196] [ohm:412231:0]        ib_iface.c:1059 UCX  ERROR ibv_create_cq(cqe=256) failed: Connection timed out
[1739907618.752999] [ohm:412307:0]        ib_iface.c:1059 UCX  ERROR ibv_create_cq(cqe=256) failed: Connection timed out
[1739907618.764911] [ohm:412246:0]        ib_iface.c:1059 UCX  ERROR ibv_create_cq(cqe=256) failed: Connection timed out
[1739907618.766378] [ohm:412227:0]        ib_iface.c:1059 UCX  ERROR ibv_create_cq(cqe=256) failed: Connection timed out
[1739907618.766489] [ohm:412334:0]        ib_iface.c:1059 UCX  ERROR ibv_create_cq(cqe=256) failed: Connection timed out
[1739907618.768059] [ohm:412275:0]        ib_iface.c:1059 UCX  ERROR ibv_create_cq(cqe=256) failed: Connection timed out
[1739907618.768119] [ohm:412361:0]        ib_iface.c:1059 UCX  ERROR ibv_create_cq(cqe=256) failed: Connection timed out
[1739907618.771875] [ohm:412345:0]        ib_iface.c:1059 UCX  ERROR ibv_create_cq(cqe=256) failed: Connection timed out
[1739907618.801695] [ohm:412237:0]        ib_iface.c:1059 UCX  ERROR ibv_create_cq(cqe=256) failed: Connection timed out
[1739907618.806032] [ohm:412284:0]        ib_iface.c:1059 UCX  ERROR ibv_create_cq(cqe=256) failed: Connection timed out
[1739907618.812022] [ohm:412281:0]        ib_iface.c:1059 UCX  ERROR ibv_create_cq(cqe=256) failed: Connection timed out
[1739907618.815822] [ohm:412325:0]        ib_iface.c:1059 UCX  ERROR ibv_create_cq(cqe=256) failed: Connection timed out
[1739907618.818987] [ohm:412311:0]        ib_iface.c:1059 UCX  ERROR ibv_create_cq(cqe=256) failed: Connection timed out
[1739907618.824250] [ohm:412294:0]        ib_iface.c:1059 UCX  ERROR ibv_create_cq(cqe=256) failed: Connection timed out
[1739907618.828402] [ohm:412302:0]        ib_iface.c:1059 UCX  ERROR ibv_create_cq(cqe=256) failed: Connection timed out
[1739907618.830377] [ohm:412327:0]        ib_iface.c:1059 UCX  ERROR ibv_create_cq(cqe=256) failed: Connection timed out
[1739907618.837234] [ohm:412331:0]        ib_iface.c:1059 UCX  ERROR ibv_create_cq(cqe=256) failed: Connection timed out
[1739907618.837333] [ohm:412301:0]        ib_iface.c:1059 UCX  ERROR ibv_create_cq(cqe=256) failed: Connection timed out
[1739907618.850205] [ohm:412242:0]        ib_iface.c:1059 UCX  ERROR ibv_create_cq(cqe=256) failed: Connection timed out
[1739907618.857787] [ohm:412260:0]        ib_iface.c:1059 UCX  ERROR ibv_create_cq(cqe=256) failed: Connection timed out
[1739907618.862225] [ohm:412268:0]        ib_iface.c:1059 UCX  ERROR ibv_create_cq(cqe=256) failed: Connection timed out
[1739907618.863908] [ohm:412249:0]        ib_iface.c:1059 UCX  ERROR ibv_create_cq(cqe=256) failed: Connection timed out
[1739907618.866409] [ohm:412317:0]        ib_iface.c:1059 UCX  ERROR ibv_create_cq(cqe=256) failed: Connection timed out
[1739907618.866868] [ohm:412291:0]        ib_iface.c:1059 UCX  ERROR ibv_create_cq(cqe=256) failed: Connection timed out
[1739907618.868393] [ohm:412273:0]        ib_iface.c:1059 UCX  ERROR ibv_create_cq(cqe=256) failed: Connection timed out
[1739907618.875021] [ohm:412340:0]        ib_iface.c:1059 UCX  ERROR ibv_create_cq(cqe=256) failed: Connection timed out
[1739907618.883225] [ohm:412239:0]        ib_iface.c:1059 UCX  ERROR ibv_create_cq(cqe=256) failed: Connection timed out
[1739907618.883973] [ohm:412269:0]        ib_iface.c:1059 UCX  ERROR ibv_create_cq(cqe=256) failed: Connection timed out
[1739907618.885349] [ohm:412321:0]        ib_iface.c:1059 UCX  ERROR ibv_create_cq(cqe=256) failed: Connection timed out
[1739907618.886275] [ohm:412266:0]        ib_iface.c:1059 UCX  ERROR ibv_create_cq(cqe=256) failed: Connection timed out
[1739907618.890662] [ohm:412264:0]        ib_iface.c:1059 UCX  ERROR ibv_create_cq(cqe=256) failed: Connection timed out
[1739907618.897152] [ohm:412232:0]        ib_iface.c:1059 UCX  ERROR ibv_create_cq(cqe=256) failed: Connection timed out
[1739907618.897351] [ohm:412241:0]        ib_iface.c:1059 UCX  ERROR ibv_create_cq(cqe=256) failed: Connection timed out
[1739907618.899371] [ohm:412271:0]        ib_iface.c:1059 UCX  ERROR ibv_create_cq(cqe=256) failed: Connection timed out
[1739907618.899644] [ohm:412233:0]        ib_iface.c:1059 UCX  ERROR ibv_create_cq(cqe=256) failed: Connection timed out
[1739907618.899680] [ohm:412234:0]        ib_iface.c:1059 UCX  ERROR ibv_create_cq(cqe=256) failed: Connection timed out
[1739907618.900639] [ohm:412258:0]        ib_iface.c:1059 UCX  ERROR ibv_create_cq(cqe=256) failed: Connection timed out
[1739907618.901239] [ohm:412353:0]        ib_iface.c:1059 UCX  ERROR ibv_create_cq(cqe=256) failed: Connection timed out
[1739907618.902181] [ohm:412240:0]        ib_iface.c:1059 UCX  ERROR ibv_create_cq(cqe=256) failed: Connection timed out
[1739907618.904587] [ohm:412364:0]        ib_iface.c:1059 UCX  ERROR ibv_create_cq(cqe=256) failed: Connection timed out
[1739907618.907823] [ohm:412235:0]        ib_iface.c:1059 UCX  ERROR ibv_create_cq(cqe=256) failed: Connection timed out
[1739907618.907827] [ohm:412305:0]        ib_iface.c:1059 UCX  ERROR ibv_create_cq(cqe=256) failed: Connection timed out
[1739907618.907979] [ohm:412236:0]        ib_iface.c:1059 UCX  ERROR ibv_create_cq(cqe=256) failed: Connection timed out
[1739907618.908449] [ohm:412337:0]        ib_iface.c:1059 UCX  ERROR ibv_create_cq(cqe=256) failed: Connection timed out
[1739907618.908752] [ohm:412247:0]        ib_iface.c:1059 UCX  ERROR ibv_create_cq(cqe=256) failed: Connection timed out


           ************************************************************
           *        Program running with 64 parallel MPI-processes    *
           *              working on a common directory               *
           ************************************************************
-------------------------------------------------------------------------------
                                 ORCA GUESS
                   Start orbitals & Density for SCF / CASSCF
-------------------------------------------------------------------------------

------------
SCF SETTINGS
------------
Hamiltonian:
 Density Functional     Method          .... DFT(GTOs)
  Functional kind                       .... Exchange-Correlation
  Functional name                       .... wB97M-V exchange-correlation functional
  Functional family                     .... Hybrid MGGA
  Functional refs                              
    [ 0] N. Mardirossian and M. Head-Gordon.,  J. Chem. Phys. 144, 214110 (2016), doi: 10.1063/1.4952647
  Fraction of HF Exchange (short range) .... 0.1500
  Fraction of HF Exchange (long range)  .... 1.0000
  Range separation parameter mu         .... 0.3000
  Functional external parameters        .... 17
    Parameter  0 _cx00      =  8.500000e-01 : u^00 coefficient for exchange
    Parameter  1 _cx01      =  1.007000e+00 : u^01 coefficient for exchange
    Parameter  2 _cx10      =  2.590000e-01 : u^10 coefficient for exchange
    Parameter  3 _css00     =  4.430000e-01 : u^00 coefficient for same-spin correlation
    Parameter  4 _css04     = -1.437000e+00 : u^04 coefficient for same-spin correlation
    Parameter  5 _css10     = -4.535000e+00 : u^10 coefficient for same-spin correlation
    Parameter  6 _css20     = -3.390000e+00 : u^20 coefficient for same-spin correlation
    Parameter  7 _css43     =  4.278000e+00 : u^43 coefficient for same-spin correlation
    Parameter  8 _cos00     =  1.000000e+00 : u^00 coefficient for opposite-spin correlation
    Parameter  9 _cos10     =  1.358000e+00 : u^10 coefficient for opposite-spin correlation
    Parameter 10 _cos20     =  2.924000e+00 : u^20 coefficient for opposite-spin correlation
    Parameter 11 _cos21     = -8.812000e+00 : u^21 coefficient for opposite-spin correlation
    Parameter 12 _cos60     = -1.390000e+00 : u^60 coefficient for opposite-spin correlation
    Parameter 13 _cos61     =  9.142000e+00 : u^61 coefficient for opposite-spin correlation
    Parameter 14 _alpha     =  1.000000e+00 : fraction of HF exchange
    Parameter 15 _beta      = -8.500000e-01 : fraction of short-range exchange
    Parameter 16 _omega     =  3.000000e-01 : range-separation constant
 Long-range corrected/Screened/Range-Separated Hybrid DFT is turned on
   Amount of maximum screened exact exchange              ....  0.850000
   Range separation parameter mu (erf(mu*r12)/r12)        ....  0.300000
 RI-approximation to the Coulomb term is turned on
   Number of AuxJ basis functions       .... 1014
   RIJ-COSX (HFX calculated with COS-X)).... on


General Settings:
 Integral files         IntName         .... orca
 Hartree-Fock type      HFTyp           .... UHF
 Total Charge           Charge          ....    0
 Multiplicity           Mult            ....    3
 Number of Electrons    NEL             ....  132
 Basis Dimension        Dim             ....  882
 Nuclear Repulsion      ENuc            ....   1473.5921892289 Eh

Convergence Acceleration:
 AO-DIIS                CNVDIIS         .... on
   Start iteration      DIISMaxIt       ....    12
   Startup error        DIISStart       ....  0.200000
   # of expansion vecs  DIISMaxEq       ....     5
   Bias factor          DIISBfac        ....   1.050
   Max. coefficient     DIISMaxC        ....  10.000
 MO-DIIS                CNVKDIIS        .... off
 Trust-Rad. Augm. Hess. CNVTRAH         .... auto
   Auto Start mean grad. ratio tolernc. ....  1.125000
   Auto Start start iteration           ....    50
   Auto Start num. interpolation iter.  ....    10
   Max. Number of Micro iterations      ....    24
   Max. Number of Macro iterations      .... Maxiter - #DIIS iter
   Number of Davidson start vectors     ....     2
   Converg. threshold    (grad. norm)   ....   1.000e-05
   Grad. Scal. Fac. for Micro threshold ....   0.100
   Minimum threshold for Micro iter.    ....   1.000e-02
   NR start threshold (gradient norm)   ....   1.000e-04
   Initial trust radius                 ....   0.400
   Minimum AH scaling param. (alpha)    ....   1.000
   Maximum AH scaling param. (alpha)    .... 1000.000
   Quad. conv. algorithm                .... NR
   White noise on init. David. guess    .... on
   Maximum white noise                  ....   0.010
   Pseudo random numbers                .... off
   Inactive MOs                         .... canonical
   Orbital update algorithm             .... Taylor
   Preconditioner                       .... Diag
   Full preconditioner red. dimension   ....   250
 SOSCF                  CNVSOSCF        .... on
   Start iteration      SOSCFMaxIt      ....   150
   Startup grad/error   SOSCFStart      ....  0.003300
   Hessian update       SOSCFHessUp     .... L-BFGS
 Level Shifting         CNVShift        .... on
   Level shift para.    LevelShift      ....    0.2500
   Turn off err/grad.   ShiftErr        ....    0.0010
 Zerner damping         CNVZerner       .... off
 Static damping         CNVDamp         .... on
   Fraction old density DampFac         ....    0.7000
   Max. Damping (<1)    DampMax         ....    0.9800
   Min. Damping (>=0)   DampMin         ....    0.0000
   Turn off err/grad.   DampErr         ....    0.1000

SCF Procedure:
 Maximum # iterations   MaxIter         ....   125
 SCF integral mode      SCFMode         .... Direct
   Integral package                     .... SHARK and LIBINT hybrid scheme
 Reset frequency        DirectResetFreq ....    20
 Integral Threshold     Thresh          ....  1.000e-12 Eh
 Primitive CutOff       TCut            ....  1.000e-13 Eh

Convergence Tolerance:
 Convergence Check Mode ConvCheckMode   .... Total+1el-Energy
 Convergence forced     ConvForced      .... 1
 Energy Change          TolE            ....  1.000e-08 Eh
 1-El. energy change                    ....  1.000e-05 Eh
 Orbital Gradient       TolG            ....  1.000e-05
 Orbital Rotation angle TolX            ....  1.000e-05
 DIIS Error             TolErr          ....  5.000e-07

------------------------------
INITIAL GUESS: MODEL POTENTIAL
------------------------------
Loading Hartree-Fock densities                     ... done
Calculating cut-offs                               ... done
Initializing the effective Hamiltonian             ... done
Setting up the integral package (SHARK)            ... done
Starting the Coulomb interaction                   ... done (   0.1 sec)
Making the grid                                    ... done (   0.2 sec)
Mapping shells                                     ... done
Starting the XC term evaluation                    ... done (   0.1 sec)
  promolecular density results
     # of electrons  =    132.003569532
     EX              =   -113.605662241
     EC              =     -4.506470761
     EX+EC           =   -118.112133002
Transforming the Hamiltonian                       ... done (   0.1 sec)
Diagonalizing the Hamiltonian                      ... done (   0.1 sec)
Back transforming the eigenvectors                 ... done (   0.1 sec)
Now organizing SCF variables                       ... done
                      ------------------
                      INITIAL GUESS DONE (   1.1 sec)
                      ------------------
             **** ENERGY FILE WAS UPDATED (orca.en.tmp) ****
Finished Guess after   3.6 sec
Maximum memory used throughout the entire GUESS-calculation: 73.2 MB
[1739907622.665131] [ohm:412569:0]        ib_iface.c:1059 UCX  ERROR ibv_create_cq(cqe=256) failed: Connection timed out
[1739907622.688793] [ohm:412574:0]        ib_iface.c:1059 UCX  ERROR ibv_create_cq(cqe=256) failed: Connection timed out
[1739907622.695991] [ohm:412573:0]        ib_iface.c:1059 UCX  ERROR ibv_create_cq(cqe=256) failed: Connection timed out
[1739907622.709219] [ohm:412571:0]        ib_iface.c:1059 UCX  ERROR ibv_create_cq(cqe=256) failed: Connection timed out
[1739907622.729375] [ohm:412572:0]        ib_iface.c:1059 UCX  ERROR ibv_create_cq(cqe=256) failed: Connection timed out
[1739907622.735193] [ohm:412580:0]        ib_iface.c:1059 UCX  ERROR ibv_create_cq(cqe=256) failed: Connection timed out
[1739907622.736985] [ohm:412577:0]        ib_iface.c:1059 UCX  ERROR ibv_create_cq(cqe=256) failed: Connection timed out
[1739907622.743365] [ohm:412612:0]        ib_iface.c:1059 UCX  ERROR ibv_create_cq(cqe=256) failed: Connection timed out
[1739907622.751428] [ohm:412575:0]        ib_iface.c:1059 UCX  ERROR ibv_create_cq(cqe=256) failed: Connection timed out
[1739907622.763024] [ohm:412584:0]        ib_iface.c:1059 UCX  ERROR ibv_create_cq(cqe=256) failed: Connection timed out
[1739907622.771696] [ohm:412617:0]        ib_iface.c:1059 UCX  ERROR ibv_create_cq(cqe=256) failed: Connection timed out
[1739907622.771763] [ohm:412570:0]        ib_iface.c:1059 UCX  ERROR ibv_create_cq(cqe=256) failed: Connection timed out
[1739907622.772177] [ohm:412582:0]        ib_iface.c:1059 UCX  ERROR ibv_create_cq(cqe=256) failed: Connection timed out
[1739907622.781826] [ohm:412632:0]        ib_iface.c:1059 UCX  ERROR ibv_create_cq(cqe=256) failed: Connection timed out
[1739907622.783506] [ohm:412576:0]        ib_iface.c:1059 UCX  ERROR ibv_create_cq(cqe=256) failed: Connection timed out
[1739907622.798376] [ohm:412589:0]        ib_iface.c:1059 UCX  ERROR ibv_create_cq(cqe=256) failed: Connection timed out
[1739907622.810921] [ohm:412664:0]        ib_iface.c:1059 UCX  ERROR ibv_create_cq(cqe=256) failed: Connection timed out
[1739907622.818314] [ohm:412622:0]        ib_iface.c:1059 UCX  ERROR ibv_create_cq(cqe=256) failed: Connection timed out
[1739907622.818553] [ohm:412628:0]        ib_iface.c:1059 UCX  ERROR ibv_create_cq(cqe=256) failed: Connection timed out
[1739907622.823221] [ohm:412625:0]        ib_iface.c:1059 UCX  ERROR ibv_create_cq(cqe=256) failed: Connection timed out
[1739907622.823376] [ohm:412710:0]        ib_iface.c:1059 UCX  ERROR ibv_create_cq(cqe=256) failed: Connection timed out
[1739907622.832106] [ohm:412635:0]        ib_iface.c:1059 UCX  ERROR ibv_create_cq(cqe=256) failed: Connection timed out
[1739907622.835642] [ohm:412629:0]        ib_iface.c:1059 UCX  ERROR ibv_create_cq(cqe=256) failed: Connection timed out
[1739907622.853039] [ohm:412715:0]        ib_iface.c:1059 UCX  ERROR ibv_create_cq(cqe=256) failed: Connection timed out
[1739907622.857952] [ohm:412651:0]        ib_iface.c:1059 UCX  ERROR ibv_create_cq(cqe=256) failed: Connection timed out
[1739907622.877107] [ohm:412644:0]        ib_iface.c:1059 UCX  ERROR ibv_create_cq(cqe=256) failed: Connection timed out
[1739907622.893259] [ohm:412631:0]        ib_iface.c:1059 UCX  ERROR ibv_create_cq(cqe=256) failed: Connection timed out
[1739907622.895205] [ohm:412607:0]        ib_iface.c:1059 UCX  ERROR ibv_create_cq(cqe=256) failed: Connection timed out
[1739907622.898482] [ohm:412640:0]        ib_iface.c:1059 UCX  ERROR ibv_create_cq(cqe=256) failed: Connection timed out
[1739907622.905181] [ohm:412686:0]        ib_iface.c:1059 UCX  ERROR ibv_create_cq(cqe=256) failed: Connection timed out
[1739907622.906405] [ohm:412633:0]        ib_iface.c:1059 UCX  ERROR ibv_create_cq(cqe=256) failed: Connection timed out
[1739907622.911404] [ohm:412666:0]        ib_iface.c:1059 UCX  ERROR ibv_create_cq(cqe=256) failed: Connection timed out
[1739907622.916542] [ohm:412670:0]        ib_iface.c:1059 UCX  ERROR ibv_create_cq(cqe=256) failed: Connection timed out
[1739907622.916865] [ohm:412724:0]        ib_iface.c:1059 UCX  ERROR ibv_create_cq(cqe=256) failed: Connection timed out
[1739907622.916989] [ohm:412679:0]        ib_iface.c:1059 UCX  ERROR ibv_create_cq(cqe=256) failed: Connection timed out
[1739907622.918790] [ohm:412595:0]        ib_iface.c:1059 UCX  ERROR ibv_create_cq(cqe=256) failed: Connection timed out
[1739907622.920284] [ohm:412703:0]        ib_iface.c:1059 UCX  ERROR ibv_create_cq(cqe=256) failed: Connection timed out
[1739907622.922698] [ohm:412630:0]        ib_iface.c:1059 UCX  ERROR ibv_create_cq(cqe=256) failed: Connection timed out
[1739907622.923164] [ohm:412721:0]        ib_iface.c:1059 UCX  ERROR ibv_create_cq(cqe=256) failed: Connection timed out
[1739907622.925800] [ohm:412662:0]        ib_iface.c:1059 UCX  ERROR ibv_create_cq(cqe=256) failed: Connection timed out
[1739907622.928925] [ohm:412642:0]        ib_iface.c:1059 UCX  ERROR ibv_create_cq(cqe=256) failed: Connection timed out
[1739907622.929878] [ohm:412711:0]        ib_iface.c:1059 UCX  ERROR ibv_create_cq(cqe=256) failed: Connection timed out
[1739907622.945438] [ohm:412657:0]        ib_iface.c:1059 UCX  ERROR ibv_create_cq(cqe=256) failed: Connection timed out
[1739907622.950744] [ohm:412693:0]        ib_iface.c:1059 UCX  ERROR ibv_create_cq(cqe=256) failed: Connection timed out
[1739907622.951435] [ohm:412689:0]        ib_iface.c:1059 UCX  ERROR ibv_create_cq(cqe=256) failed: Connection timed out
[1739907622.962579] [ohm:412621:0]        ib_iface.c:1059 UCX  ERROR ibv_create_cq(cqe=256) failed: Connection timed out
[1739907622.964764] [ohm:412615:0]        ib_iface.c:1059 UCX  ERROR ibv_create_cq(cqe=256) failed: Connection timed out
[1739907622.965591] [ohm:412681:0]        ib_iface.c:1059 UCX  ERROR ibv_create_cq(cqe=256) failed: Connection timed out
[1739907622.968058] [ohm:412636:0]        ib_iface.c:1059 UCX  ERROR ibv_create_cq(cqe=256) failed: Connection timed out
[1739907622.968654] [ohm:412591:0]        ib_iface.c:1059 UCX  ERROR ibv_create_cq(cqe=256) failed: Connection timed out
[1739907622.968660] [ohm:412626:0]        ib_iface.c:1059 UCX  ERROR ibv_create_cq(cqe=256) failed: Connection timed out
[1739907622.969920] [ohm:412716:0]        ib_iface.c:1059 UCX  ERROR ibv_create_cq(cqe=256) failed: Connection timed out
[1739907622.972421] [ohm:412623:0]        ib_iface.c:1059 UCX  ERROR ibv_create_cq(cqe=256) failed: Connection timed out
[1739907622.980182] [ohm:412620:0]        ib_iface.c:1059 UCX  ERROR ibv_create_cq(cqe=256) failed: Connection timed out
[1739907622.982425] [ohm:412597:0]        ib_iface.c:1059 UCX  ERROR ibv_create_cq(cqe=256) failed: Connection timed out
[1739907622.984310] [ohm:412704:0]        ib_iface.c:1059 UCX  ERROR ibv_create_cq(cqe=256) failed: Connection timed out
[1739907622.989039] [ohm:412673:0]        ib_iface.c:1059 UCX  ERROR ibv_create_cq(cqe=256) failed: Connection timed out
[1739907622.992540] [ohm:412627:0]        ib_iface.c:1059 UCX  ERROR ibv_create_cq(cqe=256) failed: Connection timed out
[1739907622.993637] [ohm:412592:0]        ib_iface.c:1059 UCX  ERROR ibv_create_cq(cqe=256) failed: Connection timed out
[1739907622.994127] [ohm:412568:0]        ib_iface.c:1059 UCX  ERROR ibv_create_cq(cqe=256) failed: Connection timed out
[1739907622.994281] [ohm:412604:0]        ib_iface.c:1059 UCX  ERROR ibv_create_cq(cqe=256) failed: Connection timed out
[1739907622.997424] [ohm:412648:0]        ib_iface.c:1059 UCX  ERROR ibv_create_cq(cqe=256) failed: Connection timed out
[1739907622.998335] [ohm:412697:0]        ib_iface.c:1059 UCX  ERROR ibv_create_cq(cqe=256) failed: Connection timed out
[1739907623.000754] [ohm:412590:0]        ib_iface.c:1059 UCX  ERROR ibv_create_cq(cqe=256) failed: Connection timed out


           ************************************************************
           *        Program running with 64 parallel MPI-processes    *
           *              working on a common directory               *
           ************************************************************

-------------------------------------------------------------------------------------------
                                      ORCA LEAN-SCF
                              memory conserving SCF solver
-------------------------------------------------------------------------------------------

----------------------------------------D-I-I-S--------------------------------------------
Iteration    Energy (Eh)           Delta-E    RMSDP     MaxDP     DIISErr   Damp  Time(sec)
-------------------------------------------------------------------------------------------
               ***  Starting incremental Fock matrix formation  ***
    1    -908.0977946105908813     0.00e+00  1.93e-03  4.43e-01  1.47e-01  0.700   7.9
    2    -908.3713560171427162    -2.74e-01  1.49e-03  3.10e-01  6.97e-02  0.700   6.7
                               ***Turning on AO-DIIS***
    3    -908.4927533432824021    -1.21e-01  1.07e-03  2.26e-01  3.04e-02  0.700   6.0
    4    -908.5673636475066814    -7.46e-02  2.41e-03  4.08e-01  1.85e-02  0.000   5.9
    5    -908.7350108912614814    -1.68e-01  3.74e-04  7.60e-02  4.22e-03  0.000   6.1
                              *** Initializing SOSCF ***
---------------------------------------S-O-S-C-F--------------------------------------
Iteration    Energy (Eh)           Delta-E    RMSDP     MaxDP     MaxGrad    Time(sec)
--------------------------------------------------------------------------------------
    6    -908.7364228045325945    -1.41e-03  1.53e-04  3.32e-02  2.67e-03     6.7
               *** Restarting incremental Fock matrix formation ***
    7    -908.7370444655803112    -6.22e-04  2.68e-04  5.71e-02  4.94e-03     7.5
    8    -908.7374715300943535    -4.27e-04  2.92e-04  7.37e-02  2.66e-03     6.7
    9    -908.7376186001288261    -1.47e-04  1.45e-04  3.17e-02  8.55e-04     6.8
   10    -908.7376923238257405    -7.37e-05  4.29e-05  1.02e-02  4.08e-04     6.6
   11    -908.7377033521438534    -1.10e-05  1.22e-05  3.28e-03  1.15e-04     6.4
   12    -908.7377051496819149    -1.80e-06  8.37e-06  1.73e-03  1.37e-04     6.2
   13    -908.7377061032757410    -9.54e-07  5.21e-06  8.88e-04  3.29e-05     6.1
   14    -908.7377062654622932    -1.62e-07  1.98e-06  4.66e-04  2.84e-05     6.1
   15    -908.7377063122544314    -4.68e-08  1.72e-06  3.22e-04  1.28e-05     5.8
   16    -908.7377063580393042    -4.58e-08  1.76e-06  4.00e-04  3.94e-06     5.7
   17    -908.7377063532057946     4.83e-09  1.73e-06  5.02e-04  3.25e-06     5.7
                 **** Energy Check signals convergence ****

               *****************************************************
               *                     SUCCESS                       *
               *           SCF CONVERGED AFTER  17 CYCLES          *
               *****************************************************

Recomputing exchange energy using gridx3       ... done (    8.000 sec)
Old exchange energy                            :    -35.058206422 Eh
New exchange energy                            :    -35.058210229 Eh
Exchange energy change after final integration :     -0.000003807 Eh
Total energy after final integration           :   -908.737710160 Eh
             **** ENERGY FILE WAS UPDATED (orca.en.tmp) ****

----------------
TOTAL SCF ENERGY
----------------

Total Energy       :       -908.73771016000012 Eh          -24728.01024 eV

Components:
Nuclear Repulsion  :       1473.59218922894797 Eh           40098.48204 eV
Electronic Energy  :      -2382.32989558215377 Eh          -64826.49217 eV
One Electron Energy:      -4164.38983211248797 Eh         -113318.80835 eV
Two Electron Energy:       1782.05993653033420 Eh           48492.31617 eV

Virial components:
Potential Energy   :      -1814.90015685664775 Eh          -49385.94400 eV
Kinetic Energy     :        906.16244669664775 Eh           24657.93376 eV
Virial Ratio       :          2.00284194459033

DFT components:
N(Alpha)           :       67.000114253740 electrons
N(Beta)            :       65.000088973527 electrons
N(Total)           :      132.000203227267 electrons
E(XC)              :      -86.340054265609 Eh       

---------------
SCF CONVERGENCE
---------------

  Last Energy change         ...   -4.8335e-09  Tolerance :   1.0000e-08
  Last MAX-Density change    ...    5.0247e-04  Tolerance :   1.0000e-07
  Last RMS-Density change    ...    1.7295e-06  Tolerance :   5.0000e-09
  Last DIIS Error            ...    2.6682e-03  Tolerance :   5.0000e-07
  Last Orbital Gradient      ...    3.2520e-06  Tolerance :   1.0000e-05
  Last Orbital Rotation      ...    1.8519e-05  Tolerance :   1.0000e-05


----------------------
UHF SPIN CONTAMINATION
----------------------

Warning: in a DFT calculation there is little theoretical justification to 
         calculate <S**2> as in Hartree-Fock theory. We will do it anyways
         but you should keep in mind that the values have only limited relevance

Expectation value of <S**2>     :     2.012616
Ideal value S*(S+1) for S=1.0   :     2.000000
Deviation                       :     0.012616

----------------
ORBITAL ENERGIES
----------------
                 SPIN UP ORBITALS
  NO   OCC          E(Eh)            E(eV) 
   0   1.0000     -19.334470      -526.1177 
   1   1.0000     -19.332204      -526.0560 
   2   1.0000     -19.324561      -525.8480 
   3   1.0000     -19.305069      -525.3176 
   4   1.0000     -14.565916      -396.3587 
   5   1.0000     -14.564299      -396.3147 
   6   1.0000     -14.561074      -396.2270 
   7   1.0000     -14.551904      -395.9774 
   8   1.0000     -10.511542      -286.0336 
   9   1.0000     -10.492409      -285.5130 
  10   1.0000     -10.478849      -285.1440 
  11   1.0000     -10.477122      -285.0970 
  12   1.0000     -10.444007      -284.1959 
  13   1.0000     -10.443598      -284.1848 
  14   1.0000     -10.416365      -283.4437 
  15   1.0000     -10.406361      -283.1715 
  16   1.0000     -10.366514      -282.0872 
  17   1.0000     -10.366135      -282.0769 
  18   1.0000      -1.221985       -33.2519 
  19   1.0000      -1.216012       -33.0894 
  20   1.0000      -1.198317       -32.6079 
  21   1.0000      -1.195056       -32.5191 
  22   1.0000      -1.119315       -30.4581 
  23   1.0000      -1.097655       -29.8687 
  24   1.0000      -1.067652       -29.0523 
  25   1.0000      -1.055291       -28.7159 
  26   1.0000      -0.984892       -26.8003 
  27   1.0000      -0.958360       -26.0783 
  28   1.0000      -0.885732       -24.1020 
  29   1.0000      -0.843720       -22.9588 
  30   1.0000      -0.833230       -22.6733 
  31   1.0000      -0.801908       -21.8210 
  32   1.0000      -0.785787       -21.3823 
  33   1.0000      -0.781000       -21.2521 
  34   1.0000      -0.701787       -19.0966 
  35   1.0000      -0.697675       -18.9847 
  36   1.0000      -0.688090       -18.7239 
  37   1.0000      -0.671307       -18.2672 
  38   1.0000      -0.664944       -18.0940 
  39   1.0000      -0.639385       -17.3986 
  40   1.0000      -0.624801       -17.0017 
  41   1.0000      -0.602803       -16.4031 
  42   1.0000      -0.589552       -16.0425 
  43   1.0000      -0.586281       -15.9535 
  44   1.0000      -0.579641       -15.7728 
  45   1.0000      -0.574818       -15.6416 
  46   1.0000      -0.563819       -15.3423 
  47   1.0000      -0.558960       -15.2101 
  48   1.0000      -0.556256       -15.1365 
  49   1.0000      -0.550217       -14.9722 
  50   1.0000      -0.546574       -14.8730 
  51   1.0000      -0.539497       -14.6805 
  52   1.0000      -0.531720       -14.4688 
  53   1.0000      -0.527034       -14.3413 
  54   1.0000      -0.513282       -13.9671 
  55   1.0000      -0.512813       -13.9543 
  56   1.0000      -0.495997       -13.4968 
  57   1.0000      -0.418420       -11.3858 
  58   1.0000      -0.415112       -11.2958 
  59   1.0000      -0.408472       -11.1151 
  60   1.0000      -0.403825       -10.9886 
  61   1.0000      -0.396897       -10.8001 
  62   1.0000      -0.392540       -10.6816 
  63   1.0000      -0.387144       -10.5347 
  64   1.0000      -0.381317       -10.3762 
  65   1.0000      -0.337440        -9.1822 
  66   1.0000      -0.325890        -8.8679 
  67   0.0000       0.006701         0.1823 
  68   0.0000       0.029526         0.8034 
  69   0.0000       0.031323         0.8524 
  70   0.0000       0.038159         1.0384 
  71   0.0000       0.052913         1.4398 
  72   0.0000       0.056360         1.5336 
  73   0.0000       0.058258         1.5853 
  74   0.0000       0.061693         1.6788 
  75   0.0000       0.067367         1.8331 
  76   0.0000       0.070096         1.9074 
  77   0.0000       0.081566         2.2195 

                 SPIN DOWN ORBITALS
  NO   OCC          E(Eh)            E(eV) 
   0   1.0000     -19.330948      -526.0218 
   1   1.0000     -19.327788      -525.9358 
   2   1.0000     -19.324245      -525.8395 
   3   1.0000     -19.304935      -525.3140 
   4   1.0000     -14.565555      -396.3489 
   5   1.0000     -14.563290      -396.2873 
   6   1.0000     -14.560558      -396.2129 
   7   1.0000     -14.551604      -395.9693 
   8   1.0000     -10.511570      -286.0344 
   9   1.0000     -10.492443      -285.5139 
  10   1.0000     -10.479818      -285.1703 
  11   1.0000     -10.478030      -285.1217 
  12   1.0000     -10.443778      -284.1896 
  13   1.0000     -10.443029      -284.1693 
  14   1.0000     -10.405057      -283.1360 
  15   1.0000     -10.394820      -282.8574 
  16   1.0000     -10.367084      -282.1027 
  17   1.0000     -10.366642      -282.0907 
  18   1.0000      -1.219512       -33.1846 
  19   1.0000      -1.212842       -33.0031 
  20   1.0000      -1.194607       -32.5069 
  21   1.0000      -1.191358       -32.4185 
  22   1.0000      -1.116538       -30.3825 
  23   1.0000      -1.095235       -29.8029 
  24   1.0000      -1.065789       -29.0016 
  25   1.0000      -1.053550       -28.6686 
  26   1.0000      -0.970496       -26.4085 
  27   1.0000      -0.942168       -25.6377 
  28   1.0000      -0.881687       -23.9919 
  29   1.0000      -0.837664       -22.7940 
  30   1.0000      -0.824115       -22.4253 
  31   1.0000      -0.797087       -21.6898 
  32   1.0000      -0.783643       -21.3240 
  33   1.0000      -0.779121       -21.2009 
  34   1.0000      -0.697228       -18.9725 
  35   1.0000      -0.690769       -18.7968 
  36   1.0000      -0.682831       -18.5808 
  37   1.0000      -0.663922       -18.0662 
  38   1.0000      -0.655966       -17.8497 
  39   1.0000      -0.634278       -17.2596 
  40   1.0000      -0.616163       -16.7666 
  41   1.0000      -0.598962       -16.2986 
  42   1.0000      -0.581324       -15.8186 
  43   1.0000      -0.577982       -15.7277 
  44   1.0000      -0.571312       -15.5462 
  45   1.0000      -0.566078       -15.4038 
  46   1.0000      -0.559288       -15.2190 
  47   1.0000      -0.553771       -15.0689 
  48   1.0000      -0.549842       -14.9620 
  49   1.0000      -0.545021       -14.8308 
  50   1.0000      -0.537227       -14.6187 
  51   1.0000      -0.533532       -14.5181 
  52   1.0000      -0.526934       -14.3386 
  53   1.0000      -0.517686       -14.0869 
  54   1.0000      -0.508433       -13.8352 
  55   1.0000      -0.503823       -13.7097 
  56   1.0000      -0.488630       -13.2963 
  57   1.0000      -0.414386       -11.2760 
  58   1.0000      -0.408770       -11.1232 
  59   1.0000      -0.398817       -10.8524 
  60   1.0000      -0.394640       -10.7387 
  61   1.0000      -0.387774       -10.5519 
  62   1.0000      -0.383773       -10.4430 
  63   1.0000      -0.381544       -10.3823 
  64   1.0000      -0.373196       -10.1552 
  65   0.0000      -0.063498        -1.7279 
  66   0.0000      -0.042753        -1.1634 
  67   0.0000       0.006357         0.1730 
  68   0.0000       0.029393         0.7998 
  69   0.0000       0.031227         0.8497 
  70   0.0000       0.038108         1.0370 
  71   0.0000       0.055600         1.5129 
  72   0.0000       0.057078         1.5532 
  73   0.0000       0.059970         1.6319 
  74   0.0000       0.062593         1.7032 
  75   0.0000       0.069630         1.8947 
*Only the first 10 virtual orbitals were printed.

                    ********************************
                    * MULLIKEN POPULATION ANALYSIS *
                    ********************************

--------------------------------------------
MULLIKEN ATOMIC CHARGES AND SPIN POPULATIONS
--------------------------------------------
   0 O :   -0.672772    0.162119
   1 O :   -0.642361    0.129983
   2 O :   -0.674787    0.005599
   3 O :   -0.640079    0.011004
   4 N :   -0.280480    0.019553
   5 N :   -0.320558    0.039213
   6 N :   -0.010847    0.026283
   7 N :   -0.035892    0.014344
   8 C :   -0.030687    0.443186
   9 C :    0.333800    0.456850
  10 C :    0.368874    0.122497
  11 C :    0.629423    0.138562
  12 C :   -1.423518    0.043796
  13 C :   -1.687449   -0.000827
  14 C :    0.664157    0.148984
  15 C :    0.360577    0.155099
  16 C :    0.415794   -0.012068
  17 C :    0.284506   -0.008648
  18 H :    0.523813    0.014143
  19 H :    0.473677    0.003505
  20 H :    0.389482    0.006222
  21 H :    0.213101    0.025235
  22 H :    0.344612   -0.000221
  23 H :    0.334730    0.038455
  24 H :    0.357284   -0.001513
  25 H :    0.343716    0.019374
  26 H :    0.088710   -0.003696
  27 H :    0.116897    0.004982
  28 H :    0.075564   -0.000881
  29 H :    0.100715   -0.001134
Sum of atomic charges         :    0.0000000
Sum of atomic spin populations:    2.0000000

-----------------------------------------------------
MULLIKEN REDUCED ORBITAL CHARGES AND SPIN POPULATIONS
-----------------------------------------------------
CHARGE
  0 O s       :     4.104448  s :     4.104448
      pz      :     1.540055  p :     4.535131
      px      :     1.355938
      py      :     1.639138
      dz2     :     0.006210  d :     0.031256
      dxz     :     0.005858
      dyz     :     0.007155
      dx2y2   :     0.009136
      dxy     :     0.002897
      f0      :     0.000195  f :     0.001937
      f+1     :     0.000344
      f-1     :     0.000227
      f+2     :     0.000377
      f-2     :     0.000370
      f+3     :     0.000240
      f-3     :     0.000185

  1 O s       :     4.089720  s :     4.089720
      pz      :     1.414716  p :     4.518340
[...]
[1739907882.751249] [ohm:415284:0]        ib_iface.c:1059 UCX  ERROR ibv_create_cq(cqe=256) failed: Connection timed out
[1739907882.753463] [ohm:415269:0]        ib_iface.c:1059 UCX  ERROR ibv_create_cq(cqe=256) failed: Connection timed out
[1739907882.755270] [ohm:415232:0]        ib_iface.c:1059 UCX  ERROR ibv_create_cq(cqe=256) failed: Connection timed out
[1739907882.756436] [ohm:415218:0]        ib_iface.c:1059 UCX  ERROR ibv_create_cq(cqe=256) failed: Connection timed out
[1739907882.756680] [ohm:415191:0]        ib_iface.c:1059 UCX  ERROR ibv_create_cq(cqe=256) failed: Connection timed out
[1739907882.760793] [ohm:415173:0]        ib_iface.c:1059 UCX  ERROR ibv_create_cq(cqe=256) failed: Connection timed out
[1739907882.761160] [ohm:415160:0]        ib_iface.c:1059 UCX  ERROR ibv_create_cq(cqe=256) failed: Connection timed out
[1739907882.762452] [ohm:415178:0]        ib_iface.c:1059 UCX  ERROR ibv_create_cq(cqe=256) failed: Connection timed out
[1739907882.763211] [ohm:415241:0]        ib_iface.c:1059 UCX  ERROR ibv_create_cq(cqe=256) failed: Connection timed out
[1739907882.763221] [ohm:415152:0]        ib_iface.c:1059 UCX  ERROR ibv_create_cq(cqe=256) failed: Connection timed out
[1739907882.763724] [ohm:415153:0]        ib_iface.c:1059 UCX  ERROR ibv_create_cq(cqe=256) failed: Connection timed out


           ************************************************************
           *        Program running with 64 parallel MPI-processes    *
           *              working on a common directory               *
           ************************************************************

------------------------------------------------------------------------------
                              ORCA PROPERTY CALCULATIONS
------------------------------------------------------------------------------

GBWName                                 ... orca.gbw
Number of atoms                         ...     30
Number of basis functions               ...    882
Max core memory                         ...   1024 MB

Electric properties:
Dipole moment                           ... YES
Quadrupole moment                       ...  NO
Static polarizability (Dipole/Dipole)   ...  NO
Static polarizability (Dipole/Quad.)    ...  NO
Static polarizability (Quad./Quad.)     ...  NO
Static polarizability (Velocity)        ...  NO

Atomic electric properties:
Dipole moment                           ...  NO
Quadrupole moment                       ...  NO
Static polarizability                   ...  NO

Choice of electric origin               ... Center of mass
Position of electric origin             ...    -0.020332    -0.064318    -0.039145

General magnetic properties:
Magnetizability                         ...  NO

EPR properties:
g-Tensor (aka g-matrix)                 ...  NO
Zero-Field splitting spin-orbit         ...  NO
Zero-field splitting spin-spin          ...  NO
Hyperfine couplings                     ...  NO (   0 nuclei)
Quadrupole couplings                    ...  NO (   0 nuclei)
Contact density                         ...  NO (   0 nuclei)

NMR properties:
Chemical shifts                         ...  NO (   0 nuclei)
Spin-rotation constants                 ...  NO (   0 nuclei)
Spin-spin couplings                     ...  NO (   0 nuclei,    0 pairs)

Choice of magnetic origin               ... GIAO
Position of magnetic origin             ...     0.000000     0.000000     0.000000

Properties with geometric perturbations:
SCF Hessian                             ...  NO
IR spectrum                             ...  NO
VCD spectrum                            ...  NO
X-ray spectroscopy properties:
SCF XES/XAS/RIXS spectra                ...  NO


-------------
DIPOLE MOMENT
-------------

Method             : SCF
Type of density    : Electron Density
Multiplicity       :   3
Irrep              :   0
Energy             :  -908.7377101600001197 Eh
Relativity type    : 
Basis              : AO
                                X                 Y                 Z
Electronic contribution:     -2.262669310     -10.664619023      -7.033267561
Nuclear contribution   :      2.147096425      12.497034452       9.600708424
                        -----------------------------------------
Total Dipole Moment    :     -0.115572885       1.832415429       2.567440863
                        -----------------------------------------
Magnitude (a.u.)       :      3.156399211
Magnitude (Debye)      :      8.022929202



--------------------
Rotational spectrum 
--------------------
 
Rotational constants in cm-1:             0.019175             0.016292             0.013119 
Rotational constants in MHz :           574.863918           488.425806           393.299464 

Dipole components along the rotational axes: 
x,y,z [a.u.] :     0.904901    -1.565432     2.587167 
x,y,z [Debye]:     2.300075    -3.979013     6.576055 

 

-------------
DIPOLE MOMENT
-------------

Method             : TDA/CIS
Type of density    : Electron Density
Level              : Relaxed density
State              :   2
Multiplicity       :   3
Irrep              :   0
Energy             :     0.0000000000000000 Eh
Relativity type    : 
Basis              : AO
                                X                 Y                 Z
Electronic contribution:     -2.316059622     -10.620400750      -6.938100622
Nuclear contribution   :      2.147096425      12.497034452       9.600708424
                        -----------------------------------------
Total Dipole Moment    :     -0.168963197       1.876633702       2.662607802
                        -----------------------------------------
Magnitude (a.u.)       :      3.261868011
Magnitude (Debye)      :      8.291009587



--------------------
Rotational spectrum 
--------------------
 
Rotational constants in cm-1:             0.019175             0.016292             0.013119 
Rotational constants in MHz :           574.863918           488.425806           393.299464 

Dipole components along the rotational axes: 
x,y,z [a.u.] :     0.884122    -1.622938     2.687784 
x,y,z [Debye]:     2.247259    -4.125181     6.831804 

 

Dipole moment calculation done in   0.2 sec 

Maximum memory used throughout the entire PROP-calculation: 82.2 MB
[1739907885.164646] [ohm:415492:0]        ib_iface.c:1059 UCX  ERROR ibv_create_cq(cqe=256) failed: Connection timed out
[1739907885.165147] [ohm:415490:0]        ib_iface.c:1059 UCX  ERROR ibv_create_cq(cqe=256) failed: Connection timed out
[1739907885.168647] [ohm:415493:0]        ib_iface.c:1059 UCX  ERROR ibv_create_cq(cqe=256) failed: Connection timed out
[1739907885.177764] [ohm:415491:0]        ib_iface.c:1059 UCX  ERROR ibv_create_cq(cqe=256) failed: Connection timed out
[1739907885.180046] [ohm:415488:0]        ib_iface.c:1059 UCX  ERROR ibv_create_cq(cqe=256) failed: Connection timed out
[1739907885.243788] [ohm:415615:0]        ib_iface.c:1059 UCX  ERROR ibv_create_cq(cqe=256) failed: Connection timed out
[1739907885.251343] [ohm:415499:0]        ib_iface.c:1059 UCX  ERROR ibv_create_cq(cqe=256) failed: Connection timed out
[1739907885.258007] [ohm:415531:0]        ib_iface.c:1059 UCX  ERROR ibv_create_cq(cqe=256) failed: Connection timed out
[1739907885.257985] [ohm:415592:0]        ib_iface.c:1059 UCX  ERROR ibv_create_cq(cqe=256) failed: Connection timed out
[1739907885.261351] [ohm:415526:0]        ib_iface.c:1059 UCX  ERROR ibv_create_cq(cqe=256) failed: Connection timed out
[1739907885.261346] [ohm:415489:0]        ib_iface.c:1059 UCX  ERROR ibv_create_cq(cqe=256) failed: Connection timed out
[1739907885.264640] [ohm:415536:0]        ib_iface.c:1059 UCX  ERROR ibv_create_cq(cqe=256) failed: Connection timed out
[1739907885.270542] [ohm:415545:0]        ib_iface.c:1059 UCX  ERROR ibv_create_cq(cqe=256) failed: Connection timed out
[1739907885.290094] [ohm:415495:0]        ib_iface.c:1059 UCX  ERROR ibv_create_cq(cqe=256) failed: Connection timed out
[1739907885.302613] [ohm:415539:0]        ib_iface.c:1059 UCX  ERROR ibv_create_cq(cqe=256) failed: Connection timed out
[1739907885.303826] [ohm:415546:0]        ib_iface.c:1059 UCX  ERROR ibv_create_cq(cqe=256) failed: Connection timed out
[1739907885.313246] [ohm:415496:0]        ib_iface.c:1059 UCX  ERROR ibv_create_cq(cqe=256) failed: Connection timed out
[1739907885.366998] [ohm:415532:0]        ib_iface.c:1059 UCX  ERROR ibv_create_cq(cqe=256) failed: Connection timed out
[1739907885.408720] [ohm:415501:0]        ib_iface.c:1059 UCX  ERROR ibv_create_cq(cqe=256) failed: Connection timed out
[1739907885.408716] [ohm:415572:0]        ib_iface.c:1059 UCX  ERROR ibv_create_cq(cqe=256) failed: Connection timed out
[1739907885.411236] [ohm:415638:0]        ib_iface.c:1059 UCX  ERROR ibv_create_cq(cqe=256) failed: Connection timed out
[1739907885.416273] [ohm:415551:0]        ib_iface.c:1059 UCX  ERROR ibv_create_cq(cqe=256) failed: Connection timed out
[1739907885.418604] [ohm:415606:0]        ib_iface.c:1059 UCX  ERROR ibv_create_cq(cqe=256) failed: Connection timed out
[1739907885.418865] [ohm:415562:0]        ib_iface.c:1059 UCX  ERROR ibv_create_cq(cqe=256) failed: Connection timed out
[1739907885.421287] [ohm:415553:0]        ib_iface.c:1059 UCX  ERROR ibv_create_cq(cqe=256) failed: Connection timed out
[1739907885.424209] [ohm:415497:0]        ib_iface.c:1059 UCX  ERROR ibv_create_cq(cqe=256) failed: Connection timed out
[1739907885.424957] [ohm:415576:0]        ib_iface.c:1059 UCX  ERROR ibv_create_cq(cqe=256) failed: Connection timed out
[1739907885.425482] [ohm:415602:0]        ib_iface.c:1059 UCX  ERROR ibv_create_cq(cqe=256) failed: Connection timed out
[1739907885.427159] [ohm:415528:0]        ib_iface.c:1059 UCX  ERROR ibv_create_cq(cqe=256) failed: Connection timed out
[1739907885.430379] [ohm:415597:0]        ib_iface.c:1059 UCX  ERROR ibv_create_cq(cqe=256) failed: Connection timed out
[1739907885.443431] [ohm:415627:0]        ib_iface.c:1059 UCX  ERROR ibv_create_cq(cqe=256) failed: Connection timed out
[1739907885.452451] [ohm:415588:0]        ib_iface.c:1059 UCX  ERROR ibv_create_cq(cqe=256) failed: Connection timed out
[1739907885.458057] [ohm:415598:0]        ib_iface.c:1059 UCX  ERROR ibv_create_cq(cqe=256) failed: Connection timed out
[1739907885.461163] [ohm:415617:0]        ib_iface.c:1059 UCX  ERROR ibv_create_cq(cqe=256) failed: Connection timed out
[1739907885.467032] [ohm:415560:0]        ib_iface.c:1059 UCX  ERROR ibv_create_cq(cqe=256) failed: Connection timed out
[1739907885.483375] [ohm:415580:0]        ib_iface.c:1059 UCX  ERROR ibv_create_cq(cqe=256) failed: Connection timed out
[1739907885.484513] [ohm:415625:0]        ib_iface.c:1059 UCX  ERROR ibv_create_cq(cqe=256) failed: Connection timed out
[1739907885.484580] [ohm:415631:0]        ib_iface.c:1059 UCX  ERROR ibv_create_cq(cqe=256) failed: Connection timed out
[1739907885.484815] [ohm:415633:0]        ib_iface.c:1059 UCX  ERROR ibv_create_cq(cqe=256) failed: Connection timed out
[1739907885.487340] [ohm:415609:0]        ib_iface.c:1059 UCX  ERROR ibv_create_cq(cqe=256) failed: Connection timed out
[1739907885.488169] [ohm:415557:0]        ib_iface.c:1059 UCX  ERROR ibv_create_cq(cqe=256) failed: Connection timed out
[1739907885.491879] [ohm:415566:0]        ib_iface.c:1059 UCX  ERROR ibv_create_cq(cqe=256) failed: Connection timed out
[1739907885.493785] [ohm:415577:0]        ib_iface.c:1059 UCX  ERROR ibv_create_cq(cqe=256) failed: Connection timed out
[1739907885.498440] [ohm:415544:0]        ib_iface.c:1059 UCX  ERROR ibv_create_cq(cqe=256) failed: Connection timed out
[1739907885.501628] [ohm:415549:0]        ib_iface.c:1059 UCX  ERROR ibv_create_cq(cqe=256) failed: Connection timed out
[1739907885.506060] [ohm:415494:0]        ib_iface.c:1059 UCX  ERROR ibv_create_cq(cqe=256) failed: Connection timed out
[1739907885.508656] [ohm:415500:0]        ib_iface.c:1059 UCX  ERROR ibv_create_cq(cqe=256) failed: Connection timed out
[1739907885.509024] [ohm:415542:0]        ib_iface.c:1059 UCX  ERROR ibv_create_cq(cqe=256) failed: Connection timed out
[1739907885.511924] [ohm:415513:0]        ib_iface.c:1059 UCX  ERROR ibv_create_cq(cqe=256) failed: Connection timed out
[1739907885.514511] [ohm:415535:0]        ib_iface.c:1059 UCX  ERROR ibv_create_cq(cqe=256) failed: Connection timed out
[1739907885.514797] [ohm:415570:0]        ib_iface.c:1059 UCX  ERROR ibv_create_cq(cqe=256) failed: Connection timed out
[1739907885.516182] [ohm:415543:0]        ib_iface.c:1059 UCX  ERROR ibv_create_cq(cqe=256) failed: Connection timed out
[1739907885.517868] [ohm:415518:0]        ib_iface.c:1059 UCX  ERROR ibv_create_cq(cqe=256) failed: Connection timed out
[1739907885.519708] [ohm:415547:0]        ib_iface.c:1059 UCX  ERROR ibv_create_cq(cqe=256) failed: Connection timed out
[1739907885.520140] [ohm:415623:0]        ib_iface.c:1059 UCX  ERROR ibv_create_cq(cqe=256) failed: Connection timed out
[1739907885.523170] [ohm:415620:0]        ib_iface.c:1059 UCX  ERROR ibv_create_cq(cqe=256) failed: Connection timed out
[1739907885.523178] [ohm:415540:0]        ib_iface.c:1059 UCX  ERROR ibv_create_cq(cqe=256) failed: Connection timed out
[1739907885.528401] [ohm:415548:0]        ib_iface.c:1059 UCX  ERROR ibv_create_cq(cqe=256) failed: Connection timed out
[1739907885.529840] [ohm:415515:0]        ib_iface.c:1059 UCX  ERROR ibv_create_cq(cqe=256) failed: Connection timed out
[1739907885.529849] [ohm:415520:0]        ib_iface.c:1059 UCX  ERROR ibv_create_cq(cqe=256) failed: Connection timed out
[1739907885.531345] [ohm:415498:0]        ib_iface.c:1059 UCX  ERROR ibv_create_cq(cqe=256) failed: Connection timed out
[1739907885.531937] [ohm:415554:0]        ib_iface.c:1059 UCX  ERROR ibv_create_cq(cqe=256) failed: Connection timed out
[1739907885.532852] [ohm:415550:0]        ib_iface.c:1059 UCX  ERROR ibv_create_cq(cqe=256) failed: Connection timed out
[1739907885.533381] [ohm:415582:0]        ib_iface.c:1059 UCX  ERROR ibv_create_cq(cqe=256) failed: Connection timed out

--------------------------------
SUGGESTED CITATIONS FOR THIS RUN
--------------------------------

Below you find a list of papers that are relevant to this ORCA run
We neither can nor want to force you to cite these papers, but we appreciate if you do
You receive ORCA, which is the product of decades of hard work by many enthusiastic individuals, for free
The only thing we kindly ask in return is that you cite our papers,
We deeply appreciate it, if you show your appreciation for ORCA by not just citing the generic ORCA reference.

Please note that relegating all ORCA citations to the supporting information does *not* help us.
SI sections are not indexed - citations you put there will not count into any citation statistics
But we need these citations in order to attract the funding resources that allow us to do what we are doing

Therefore, if you are a happy ORCA user, please consider citing a few of the papers listed below in the main body of your paper

In addition to the list printed below, the program has created the file orca.bibtex that contains the list in bibtex format
You can import this file easily into all common literature databanks and citation aid programs


List of essential papers. We consider these as the minimum necessary citations

  1. Neese,F.
     Software update: the ORCA program system, version 5.0
     WIRES Comput. Molec. Sci., 2022 12(1)e1606
     doi.org/10.1002/wcms.1606

List of papers to cite with high priority. The work reported in these papers was absolutely
necessary for this run to complete.
Our perspective: the developers of density functionals and basis sets usually get cited in chemistry papers
Good! But without the algorithms to do something with them, the functionals or basis sets would not do anything.
Hence, in our opinion, the algorithm design and method developments papers are equally worthy of getting cited

  1. Neese,F.; Olbrich,G.
     Efficient use of the resolution of the identity approximation in time-dependent density functional calculations with hybrid density functionals
     Chem. Phys. Lett., 2002 362 170-178
     doi.org/10.1016/s0009-2614(02)01053-9
  2. Neese,F.
     An improvement of the resolution of the identity approximation for the formation of the Coulomb matrix
     J. Comp. Chem., 2003 24(14)1740-1747
     doi.org/10.1002/jcc.10318
  3. Neese,F.; Wennmohs,F.; Hansen,A.; Becker,U.
     Efficient, approximate and parallel Hartree-Fock and hybrid DFT calculations. A 'chain-of-spheres' algorithm for the Hartree-Fock exchange
     Chem. Phys., 2009 356(1-3)98-109
     doi.org/10.1016/j.chemphys.2008.10.036
  4. Petrenko,T.; Kossmann,S.; Neese,F.
     Efficient time-dependent density functional theory approximations for hybrid density functionals: Analytical gradients and parallelization
     J. Chem. Phys., 2011 134 054116
     doi.org/10.1063/1.3533441
  5. Helmich-Paris,B.; de Souza,B.; Neese,F.; Izsák,R.
     An improved chain of spheres for exchange algorithm
     J. Chem. Phys., 2021 155 104109
     doi.org/doi: 10.1063/5.0058766.
  6. Neese,F.
     The SHARK Integral Generation and Digestion System
     J. Comp. Chem., 2022  1-16
     doi.org/10.1002/jcc.26942
  7. Lehtola,S.; Steigemann,C.; Oliveira,M.; Marques,M.
     Recent developments in Libxc - A comprehensive library of functionals for density functional theory
     Software X, 2018 7 
     doi.org/10.1016/j.softx.2017.11.002
  8. Grimme,S.; Antony,J.; Ehrlich,S.; Krieg,H.
     A consistent and accurate ab initio parametrization of density functional dispersion correction (DFT-D) for the 94 elements H-Pu
     J. Chem. Phys., 2010 132 154104-XXXX
     doi.org/10.1063/1.3382344
  9. Grimme,S.; Ehrlich,S.; Goerigk,L.
     Effect of the damping function in dispersion corrected density functional theory
     J. Comput. Chem., 2011 32(7)1456-1465
     doi.org/10.1002/jcc.21759

List of suggested additional citations. These are papers that are important in the 'surrounding' of 
of this run, or papers that preceded the highly important papers. If you like your results we are grateful for a citation.

  1. Izsak,R.; Neese,F.
     An overlap fitted chain of spheres exchange method
     J. Chem. Phys., 2011 135 144105
     doi.org/10.1063/1.3646921
  2. Izsak,R.; Hansen,A.; Neese,F.
     The resolution of identity and chain of spheres approximations for the LPNO-CCSD singles Fock term
     Molec. Phys., 2012 110 2413-2417
     doi.org/10.1080/00268976.2012.687466
  3. Neese,F.
     The ORCA program system
     WIRES Comput. Molec. Sci., 2012 2(1)73-78
     doi.org/10.1002/wcms.81
  4. Izsak,R.; Neese,F.; Klopper,W.
     Robust fitting techniques in the chain of spheres approximation to the Fock exchange: The role of the complementary space
     J. Chem. Phys., 2013 139 
     doi.org/10.1063/1.4819264
  5. Neese,F.
     Software update: the ORCA program system, version 4.0
     WIRES Comput. Molec. Sci., 2018 8(1)1-6
     doi.org/10.1002/wcms.1327
  6. Neese,F.; Wennmohs,F.; Becker,U.; Riplinger,C.
     The ORCA quantum chemistry program package
     J. Chem. Phys., 2020 152 Art. No. L224108
     doi.org/10.1063/5.0004608

List of optional additional citations

  1. Neese,F.
     Approximate second-order SCF convergence for spin unrestricted wavefunctions
     Chem. Phys. Lett., 2000 325(1-3)93-98
     doi.org/10.1016/s0009-2614(00)00662-x

Timings for individual modules:

Sum of individual times          ...      273.167 sec (=   4.553 min)
Startup calculation              ...        6.455 sec (=   0.108 min)   2.4 %
SCF iterations                   ...      126.612 sec (=   2.110 min)  46.3 %
Property integrals               ...        4.387 sec (=   0.073 min)   1.6 %
Property calculations            ...        2.894 sec (=   0.048 min)   1.1 %
CIS module                       ...      132.819 sec (=   2.214 min)  48.6 %
                             ****ORCA TERMINATED NORMALLY****
TOTAL RUN TIME: 0 days 0 hours 4 minutes 35 seconds 160 msec
