
                                 *****************
                                 * O   R   C   A *
                                 *****************

                                            #,                                       
                                            ###                                      
                                            ####                                     
                                            #####                                    
                                            ######                                   
                                           ########,                                 
                                     ,,################,,,,,                         
                               ,,#################################,,                 
                          ,,##########################################,,             
                       ,#########################################, ''#####,          
                    ,#############################################,,   '####,        
                  ,##################################################,,,,####,       
                ,###########''''           ''''###############################       
              ,#####''   ,,,,##########,,,,          '''####'''          '####       
            ,##' ,,,,###########################,,,                        '##       
           ' ,,###''''                  '''############,,,                           
         ,,##''                                '''############,,,,        ,,,,,,###''
      ,#''                                            '''#######################'''  
     '                                                          ''''####''''         
             ,#######,   #######,   ,#######,      ##                                
            ,#'     '#,  ##    ##  ,#'     '#,    #''#        ,####,   ,####,        
            ##       ##  ##   ,#'  ##            #'  '#       #'       #'  '#        
            ##       ##  #######   ##           ,######,      #####,   #    #        
            '#,     ,#'  ##    ##  '#,     ,#' ,#      #,     #,   #   #,  ,#        
             '#######'   ##     ##  '#######'  #'      '#     '####' # '####'        



                #########################################################
                #                        -***-                          #
                #          Department of theory and spectroscopy        #
                #                                                       #
                #                      Frank Neese                      #
                #                                                       #
                #     Directorship, Architecture, Infrastructure        #
                #                    SHARK, DRIVERS                     #
                #        Core code/Algorithms in most modules           #
                #                                                       #
                #        Max Planck Institute fuer Kohlenforschung      #
                #                Kaiser Wilhelm Platz 1                 #
                #                 D-45470 Muelheim/Ruhr                 #
                #                      Germany                          #
                #                                                       #
                #                  All rights reserved                  #
                #                        -***-                          #
                #########################################################


                         Program Version 6.0.0  -   RELEASE  -


 With contributions from (in alphabetic order):
   Daniel Aravena         : Magnetic Suceptibility
   Michael Atanasov       : Ab Initio Ligand Field Theory (pilot matlab implementation)
   Alexander A. Auer      : GIAO ZORA, VPT2 properties, NMR spectrum
   Ute Becker             : All parallelization in ORCA, NUMFREQ, NUMCALC
   Giovanni Bistoni       : ED, misc. LED, open-shell LED, HFLD
   Martin Brehm           : Molecular dynamics
   Dmytro Bykov           : pre 5.0 version of the SCF Hessian
   Marcos Casanova-Páez   : Triplet and SCS-CIS(D). UHF-(DLPNO)-IP/EA/STEOM-CCSD. UHF-CVS-IP/STEOM-CCSD
   Vijay G. Chilkuri      : MRCI spin determinant printing, contributions to CSF-ICE
   Pauline Colinet        : FMM embedding
   Dipayan Datta          : RHF DLPNO-CCSD density
   Achintya Kumar Dutta   : EOM-CC, STEOM-CC
   Nicolas Foglia         : Exact transition moments, OPA infrastructure, MCD improvements
   Dmitry Ganyushin       : Spin-Orbit,Spin-Spin,Magnetic field MRCI
   Miquel Garcia          : C-PCM and meta-GGA Hessian, CCSD/C-PCM, Gaussian charge scheme
   Tiago L. C. Gouveia    : GS-ROHF, GS-ROCIS
   Yang Guo               : DLPNO-NEVPT2, F12-NEVPT2, CIM, IAO-localization
   Andreas Hansen         : Spin unrestricted coupled pair/coupled cluster methods
   Ingolf Harden          : AUTO-CI MPn and infrastructure 
   Benjamin Helmich-Paris : MC-RPA, TRAH-(SCF,CASSCF), AVAS, COSX integrals, SCF dyn. polar.
   Lee Huntington         : MR-EOM, pCC
   Robert Izsak           : Overlap fitted RIJCOSX, COSX-SCS-MP3, EOM
   Riya Kayal             : Wick's Theorem for AUTO-CI, AUTO-CI UHF-CCSDT
   Emily Kempfer          : AUTO-CI, RHF CISDT and CCSDT
   Christian Kollmar      : KDIIS, OOCD, Brueckner-CCSD(T), CCSD density, CASPT2, CASPT2-K, improved NEVPT2
   Axel Koslowski         : Symmetry handling
   Simone Kossmann        : Meta GGA functionals, TD-DFT gradient, OOMP2, (MP2 Hessian; deprecated post 5.0)
   Lucas Lang             : DCDCAS
   Marvin Lechner         : AUTO-CI (C++ implementation), FIC-MRCC
   Spencer Leger          : CASSCF response
   Dagmar Lenk            : GEPOL surface, SMD, ORCA-2-JSON
   Dimitrios Liakos       : Extrapolation schemes; Compound Job, initial MDCI parallelization
   Dimitrios Manganas     : Further ROCIS development; embedding schemes. LFT, Crystal Embedding
   Dimitrios Pantazis     : SARC Basis sets
   Anastasios Papadopoulos: AUTO-CI, single reference methods and gradients
   Taras Petrenko         : pre 6.0 DFT Hessian and TD-DFT gradient, (ASA, deprecated), ECA, 1-Electron XAS/XES, NRVS
   Peter Pinski           : DLPNO-MP2, DLPNO-MP2 Gradient
   Christoph Reimann      : Effective Core Potentials
   Marius Retegan         : Local ZFS, SOC
   Christoph Riplinger    : Optimizer, TS searches, QM/MM, DLPNO-CCSD(T), (RO)-DLPNO pert. Triples
   Michael Roemelt        : Original ROCIS implementation
   Masaaki Saitow         : Open-shell DLPNO-CCSD energy and density
   Barbara Sandhoefer     : DKH picture change effects
   Kantharuban Sivalingam : CASSCF convergence/infrastructure, NEVPT2 and variants, FIC-MRCI
   Bernardo de Souza      : ESD, SOC TD-DFT
   Georgi Stoychev        : AutoAux, RI-MP2 NMR, DLPNO-MP2 response, X2C
   Van Anh Tran           : RI-MP2 g-tensors
   Willem Van den Heuvel  : Paramagnetic NMR
   Zikuan Wang            : NOTCH, Electric field optimization 
   Frank Wennmohs         : Technical directorship and infrastructure
   Hang Xu                : AUTO-CI-Response properties 


 We gratefully acknowledge several colleagues who have allowed us to
 interface, adapt or use parts of their codes:
   Stefan Grimme, W. Hujo, H. Kruse, P. Pracht,  : VdW corrections, initial TS optimization,
                  C. Bannwarth, S. Ehlert,         DFT functionals, gCP, sTDA/sTD-DF
                  L. Wittmann, M. Mueller
   Ed Valeev, F. Pavosevic, A. Kumar             : LibInt (2-el integral package), F12 methods
   Garnet Chan, S. Sharma, J. Yang, R. Olivares  : DMRG
   Ulf Ekstrom                                   : XCFun DFT Library
   Mihaly Kallay                                 : mrcc  (arbitrary order and MRCC methods)
   Frank Weinhold                                : gennbo (NPA and NBO analysis)
   Simon Mueller                                 : openCOSMO-RS
   Christopher J. Cramer and Donald G. Truhlar   : smd solvation model
   Lars Goerigk                                  : TD-DFT with DH, B97 family of functionals
   V. Asgeirsson, H. Jonsson                     : NEB implementation
   FAccTs GmbH                                   : IRC, NEB, NEB-TS, DLPNO-Multilevel, CI-OPT
                                                   MM, QMMM, 2- and 3-layer-ONIOM, Crystal-QMMM,
                                                   LR-CPCM, SF, NACMEs, symmetry and pop. for TD-DFT,
                                                   nearIR, NL-DFT gradient (VV10), updates on ESD,
                                                   ML-optimized integration grids, MBIS, APM,
                                                   GOAT, DOCKER, SOLVATOR, interface openCOSMO-RS
   S Lehtola, MJT Oliveira, MAL Marques          : LibXC Library
   Liviu Ungur et al                             : ANISO software


 Your calculation uses the libint2 library for the computation of 2-el integrals
 For citations please refer to: http://libint.valeyev.net

 Your ORCA version has been built with support for libXC version: 6.2.2
 For citations please refer to: https://libxc.gitlab.io

 This ORCA versions uses:
   CBLAS   interface :  Fast vector & matrix operations
   LAPACKE interface :  Fast linear algebra routines
   SCALAPACK package :  Parallel linear algebra routines
   Shared memory     :  Shared parallel matrices
   BLAS/LAPACK       :  OpenBLAS 0.3.27  USE64BITINT DYNAMIC_ARCH NO_AFFINITY Zen SINGLE_THREADED
        Core in use  :  Zen
   Copyright (c) 2011-2014, The OpenBLAS Project


Your calculation utilizes the atom-pairwise dispersion correction
with the Becke-Johnson damping scheme (D3BJ)


Warning: RI is on but no J-basis has been assigned. Assigning Def2/J (nothing to worry about!)
================================================================================

----- Orbital basis set information -----
Your calculation utilizes the basis: def2-TZVPPD
   F. Weigend and R. Ahlrichs, Phys. Chem. Chem. Phys. 7, 3297 (2005).
   D. Rappoport and F. Furche, J. Chem. Phys. 133, 134105 (2010)
   D. Rappoport, J. Chem. Phys. 155, 124102 (2021).

----- AuxJ basis set information -----
Your calculation utilizes the auxiliary basis: def2/J
   F. Weigend, Phys. Chem. Chem. Phys. 8, 1057 (2006).

================================================================================
                                        WARNINGS
                       Please study these warnings very carefully!
================================================================================

Using LibXC functional ID 531 : wB97M-V exchange-correlation functional
[ 1]  N. Mardirossian and M. Head-Gordon.,  J. Chem. Phys. 144, 214110 (2016)
Using LibXC functional ID 531 : wB97M-V exchange-correlation functional
[ 1]  N. Mardirossian and M. Head-Gordon.,  J. Chem. Phys. 144, 214110 (2016)

WARNING: B97M-V or wB97M-V functional requested.
  ===> : libXC variant has now been activated.
         Any manually given DFX/HFX/RangeSep scaling parameters are IGNORED!

Your calculation utilizes LibXC
 by S Lehtola, C Steigemann, MJT Oliveira & MAL Marques
Please cite in your paper:
 S Lehtola, C Steigemann, MJT Oliveira & MAL Marques, SoftwareX, 7, (2018), 1.
   


WARNING: your system is open-shell and RHF/RKS was chosen
  ===> : WILL SWITCH to UHF/UKS

INFO   : Checking CIS options ...

WARNING: CIS/ROCIS methods need fully converged wavefunctions
  ===> : Setting SCFConvForced true
         You can overwrite this default with %scf ConvForced false 


================================================================================
                                       INPUT FILE
================================================================================
NAME = orca.inp
|  1> ! Engrad def2-TZVPPD wB97M-D3BJ 
|  2> %pal nprocs 8 end%pal nprocs 64 end 
|  3> %tddft Nroots 2 Iroot 1 
|  4> sf true 
|  5> end 
|  6> *xyz 0 3 
|  7> O   3.22866886 0.91916831 -0.31787232
|  8> O   -1.07659084 0.86652727 -2.57608419
|  9> O   0.65971725 -2.65445109 -1.05929293
| 10> O   -3.25096975 -1.67458839 0.37392026
| 11> N   0.19157824 -1.42148529 0.85125944
| 12> N   -2.14126128 0.20611017 1.16797909
| 13> N   1.88664171 -0.80065621 -0.66270542
| 14> N   -1.81327015 -0.48863594 -1.00502122
| 15> C   1.58378198 0.49505968 1.34736552
| 16> C   -0.56386308 1.4062556 -0.32386861
| 17> C   0.27404971 -0.1260858 1.5264727
| 18> C   -0.90995892 0.94660404 1.02464311
| 19> C   2.15639144 1.41787867 2.32274794
| 20> C   0.27114857 2.60875587 -0.55687354
| 21> C   2.30363052 0.25298787 0.11926273
| 22> C   -1.13485917 0.59638818 -1.40658226
| 23> C   0.91441609 -1.66865879 -0.38625257
| 24> C   -2.45772528 -0.76888525 0.23237379
| 25> H   0.01850302 -0.19659104 2.58963763
| 26> H   -1.01441849 1.79889693 1.66783648
| 27> H   3.03571814 0.91307082 2.74791858
| 28> H   2.41477864 2.31349718 1.73547679
| 29> H   1.47596609 1.64367513 3.16112793
| 30> H   0.60191951 2.642745 -1.5878376
| 31> H   -0.3959583 3.41942593 -0.2951232
| 32> H   1.17523451 2.61038594 -0.02305449
| 33> H   -0.72654776 -1.81309261 0.94062673
| 34> H   -2.80637819 0.43363638 1.83581132
| 35> H   2.23041764 -0.86068582 -1.58812744
| 36> H   -1.97939707 -1.25401799 -1.71305422
| 37> *
| 38> 
| 39>                          ****END OF INPUT****
================================================================================

                     *******************************
                     * Energy+Gradient Calculation *
                     *******************************

---------------------------------
CARTESIAN COORDINATES (ANGSTROEM)
---------------------------------
  O      3.228669    0.919168   -0.317872
  O     -1.076591    0.866527   -2.576084
  O      0.659717   -2.654451   -1.059293
  O     -3.250970   -1.674588    0.373920
  N      0.191578   -1.421485    0.851259
  N     -2.141261    0.206110    1.167979
  N      1.886642   -0.800656   -0.662705
  N     -1.813270   -0.488636   -1.005021
  C      1.583782    0.495060    1.347366
  C     -0.563863    1.406256   -0.323869
  C      0.274050   -0.126086    1.526473
  C     -0.909959    0.946604    1.024643
  C      2.156391    1.417879    2.322748
  C      0.271149    2.608756   -0.556874
  C      2.303631    0.252988    0.119263
  C     -1.134859    0.596388   -1.406582
  C      0.914416   -1.668659   -0.386253
  C     -2.457725   -0.768885    0.232374
  H      0.018503   -0.196591    2.589638
  H     -1.014418    1.798897    1.667836
  H      3.035718    0.913071    2.747919
  H      2.414779    2.313497    1.735477
  H      1.475966    1.643675    3.161128
  H      0.601920    2.642745   -1.587838
  H     -0.395958    3.419426   -0.295123
  H      1.175235    2.610386   -0.023054
  H     -0.726548   -1.813093    0.940627
  H     -2.806378    0.433636    1.835811
  H      2.230418   -0.860686   -1.588127
  H     -1.979397   -1.254018   -1.713054

----------------------------
CARTESIAN COORDINATES (A.U.)
----------------------------
  NO LB      ZA    FRAG     MASS         X           Y           Z
   0 O     8.0000    0    15.999    6.101300    1.736976   -0.600692
   1 O     8.0000    0    15.999   -2.034462    1.637499   -4.868094
   2 O     8.0000    0    15.999    1.246685   -5.016186   -2.001774
   3 O     8.0000    0    15.999   -6.143442   -3.164513    0.706607
   4 N     7.0000    0    14.007    0.362030   -2.686218    1.608647
   5 N     7.0000    0    14.007   -4.046397    0.389492    2.207161
   6 N     7.0000    0    14.007    3.565236   -1.513021   -1.252332
   7 N     7.0000    0    14.007   -3.426584   -0.923388   -1.899215
   8 C     6.0000    0    12.011    2.992914    0.935527    2.546152
   9 C     6.0000    0    12.011   -1.065547    2.657438   -0.612023
  10 C     6.0000    0    12.011    0.517879   -0.238268    2.884615
  11 C     6.0000    0    12.011   -1.719573    1.788822    1.936295
  12 C     6.0000    0    12.011    4.074989    2.679402    4.389357
  13 C     6.0000    0    12.011    0.512397    4.929834   -1.052338
  14 C     6.0000    0    12.011    4.353231    0.478078    0.225374
  15 C     6.0000    0    12.011   -2.144573    1.127010   -2.658055
  16 C     6.0000    0    12.011    1.727996   -3.153308   -0.729912
  17 C     6.0000    0    12.011   -4.644428   -1.452983    0.439123
  18 H     1.0000    0     1.008    0.034966   -0.371503    4.893706
  19 H     1.0000    0     1.008   -1.916973    3.399423    3.151754
  20 H     1.0000    0     1.008    5.736676    1.725454    5.192814
  21 H     1.0000    0     1.008    4.563270    4.371876    3.279576
  22 H     1.0000    0     1.008    2.789172    3.106096    5.973666
  23 H     1.0000    0     1.008    1.137463    4.994064   -3.000578
  24 H     1.0000    0     1.008   -0.748253    6.461779   -0.557702
  25 H     1.0000    0     1.008    2.220871    4.932915   -0.043567
  26 H     1.0000    0     1.008   -1.372976   -3.426248    1.777527
  27 H     1.0000    0     1.008   -5.303286    0.819454    3.469181
  28 H     1.0000    0     1.008    4.214879   -1.626460   -3.001126
  29 H     1.0000    0     1.008   -3.740518   -2.369751   -3.237203

--------------------------------
INTERNAL COORDINATES (ANGSTROEM)
--------------------------------
 O      0   0   0     0.000000000000     0.00000000     0.00000000
 O      1   0   0     4.861846666992     0.00000000     0.00000000
 O      2   1   0     4.208647065436    58.42152395     0.00000000
 O      3   2   1     4.278750258056    63.38856280   123.16856901
 N      3   2   1     2.321544562391    76.64904603    66.51257718
 N      4   3   2     2.323576852070    82.14441298   298.17424596
 N      1   2   3     2.208561323076    51.75422472   358.04478129
 N      2   1   3     2.201681763386    88.36797748    43.35861944
 C      1   2   3     2.378768177399    73.19576395   289.15252518
 C      8   2   1     2.369725902513    62.38793632    45.37131803
 C      9   1   2     1.460581975903   141.41974722    30.24721225
 C      6   4   3     1.443946632120   142.03728986    15.42238085
 C      9   1   2     1.459742219445    94.80709470   223.77564148
 C     10   8   2     1.482411094262   154.21604918   353.02393478
 C      1   2   3     1.220892854040    59.30025096   317.52585608
 C      2   1   3     1.201709237087    66.00501290    66.86059872
 C      3   2   1     1.220508616940    66.99041132    33.43692926
 C      4   3   2     1.212258375991    62.21988060   319.99871774
 H     11   9   1     1.095716554598   110.82316329   170.04035412
 H     12   6   4     1.072852591609   105.35855258   177.38164319
 H     13   9   1     1.099461906513   106.37134507   283.55503942
 H     13   9   1     1.101718595741   104.46200290    43.38962759
 H     13   9   1     1.103106389204   113.28314251   166.21123839
 H     14  10   8     1.083259695880   110.30636883   348.65320326
 H     14  10   8     1.082003125075   102.85282566   109.74530247
 H     14  10   8     1.049922293399   113.97777349   233.66866418
 H      5   3   2     1.002146774418    92.90017607    89.57388323
 H      6   4   3     0.969612586362    95.60687750   200.28129302
 H      7   1   2     0.989035570253    88.97696623    79.83983458
 H      8   2   1     1.055802332399    91.16434923   242.64350589

---------------------------
INTERNAL COORDINATES (A.U.)
---------------------------
 O      0   0   0     0.000000000000     0.00000000     0.00000000
 O      1   0   0     9.187558705734     0.00000000     0.00000000
 O      2   1   0     7.953190348005    58.42152395     0.00000000
 O      3   2   1     8.085666183170    63.38856280   123.16856901
 N      3   2   1     4.387083430613    76.64904603    66.51257718
 N      4   3   2     4.390923901532    82.14441298   298.17424596
 N      1   2   3     4.173576050584    51.75422472   358.04478129
 N      2   1   3     4.160575566848    88.36797748    43.35861944
 C      1   2   3     4.495220391370    73.19576395   289.15252518
 C      8   2   1     4.478132968208    62.38793632    45.37131803
 C      9   1   2     2.760099930597   141.41974722    30.24721225
 C      6   4   3     2.728663686705   142.03728986    15.42238085
 C      9   1   2     2.758513020874    94.80709470   223.77564148
 C     10   8   2     2.801350986041   154.21604918   353.02393478
 C      1   2   3     2.307153132998    59.30025096   317.52585608
 C      2   1   3     2.270901350698    66.00501290    66.86059872
 C      3   2   1     2.306427030108    66.99041132    33.43692926
 C      4   3   2     2.290836334176    62.21988060   319.99871774
 H     11   9   1     2.070604208593   110.82316329   170.04035412
 H     12   6   4     2.027397580208   105.35855258   177.38164319
 H     13   9   1     2.077681897988   106.37134507   283.55503942
 H     13   9   1     2.081946422598   104.46200290    43.38962759
 H     13   9   1     2.084568972175   113.28314251   166.21123839
 H     14  10   8     2.047064157128   110.30636883   348.65320326
 H     14  10   8     2.044689582438   102.85282566   109.74530247
 H     14  10   8     1.984065596423   113.97777349   233.66866418
 H      5   3   2     1.893782949642    92.90017607    89.57388323
 H      6   4   3     1.832302244227    95.60687750   200.28129302
 H      7   1   2     1.869006364484    88.97696623    79.83983458
 H      8   2   1     1.995177259790    91.16434923   242.64350589

---------------------
BASIS SET INFORMATION
---------------------
There are 4 groups of distinct atoms

 Group   1 Type O   : 12s7p3d1f contracted to 6s4p3d1f pattern {621111/4111/111/1}
 Group   2 Type N   : 12s6p3d1f contracted to 6s3p3d1f pattern {621111/411/111/1}
 Group   3 Type C   : 12s6p3d1f contracted to 6s3p3d1f pattern {621111/411/111/1}
 Group   4 Type H   : 5s3p1d contracted to 3s3p1d pattern {311/111/1}

Atom   0O    basis set group =>   1
Atom   1O    basis set group =>   1
Atom   2O    basis set group =>   1
Atom   3O    basis set group =>   1
Atom   4N    basis set group =>   2
Atom   5N    basis set group =>   2
Atom   6N    basis set group =>   2
Atom   7N    basis set group =>   2
Atom   8C    basis set group =>   3
Atom   9C    basis set group =>   3
Atom  10C    basis set group =>   3
Atom  11C    basis set group =>   3
Atom  12C    basis set group =>   3
Atom  13C    basis set group =>   3
Atom  14C    basis set group =>   3
Atom  15C    basis set group =>   3
Atom  16C    basis set group =>   3
Atom  17C    basis set group =>   3
Atom  18H    basis set group =>   4
Atom  19H    basis set group =>   4
Atom  20H    basis set group =>   4
Atom  21H    basis set group =>   4
Atom  22H    basis set group =>   4
Atom  23H    basis set group =>   4
Atom  24H    basis set group =>   4
Atom  25H    basis set group =>   4
Atom  26H    basis set group =>   4
Atom  27H    basis set group =>   4
Atom  28H    basis set group =>   4
Atom  29H    basis set group =>   4
---------------------------------
AUXILIARY/J BASIS SET INFORMATION
---------------------------------
There are 4 groups of distinct atoms

 Group   1 Type O   : 12s5p4d2f1g contracted to 6s4p3d1f1g pattern {711111/2111/211/2/1}
 Group   2 Type N   : 12s5p4d2f1g contracted to 6s4p3d1f1g pattern {711111/2111/211/2/1}
 Group   3 Type C   : 12s5p4d2f1g contracted to 6s4p3d1f1g pattern {711111/2111/211/2/1}
 Group   4 Type H   : 5s2p1d contracted to 3s1p1d pattern {311/2/1}

Atom   0O    basis set group =>   1
Atom   1O    basis set group =>   1
Atom   2O    basis set group =>   1
Atom   3O    basis set group =>   1
Atom   4N    basis set group =>   2
Atom   5N    basis set group =>   2
Atom   6N    basis set group =>   2
Atom   7N    basis set group =>   2
Atom   8C    basis set group =>   3
Atom   9C    basis set group =>   3
Atom  10C    basis set group =>   3
Atom  11C    basis set group =>   3
Atom  12C    basis set group =>   3
Atom  13C    basis set group =>   3
Atom  14C    basis set group =>   3
Atom  15C    basis set group =>   3
Atom  16C    basis set group =>   3
Atom  17C    basis set group =>   3
Atom  18H    basis set group =>   4
Atom  19H    basis set group =>   4
Atom  20H    basis set group =>   4
Atom  21H    basis set group =>   4
Atom  22H    basis set group =>   4
Atom  23H    basis set group =>   4
Atom  24H    basis set group =>   4
Atom  25H    basis set group =>   4
Atom  26H    basis set group =>   4
Atom  27H    basis set group =>   4
Atom  28H    basis set group =>   4
Atom  29H    basis set group =>   4
[1739904786.610920] [ohm:372169:0]        ib_iface.c:1059 UCX  ERROR ibv_create_cq(cqe=256) failed: Connection timed out
[1739904786.631904] [ohm:372164:0]        ib_iface.c:1059 UCX  ERROR ibv_create_cq(cqe=256) failed: Connection timed out
[1739904786.647495] [ohm:372168:0]        ib_iface.c:1059 UCX  ERROR ibv_create_cq(cqe=256) failed: Connection timed out
[1739904786.665381] [ohm:372165:0]        ib_iface.c:1059 UCX  ERROR ibv_create_cq(cqe=256) failed: Connection timed out
[1739904786.674154] [ohm:372167:0]        ib_iface.c:1059 UCX  ERROR ibv_create_cq(cqe=256) failed: Connection timed out
[1739904786.674449] [ohm:372170:0]        ib_iface.c:1059 UCX  ERROR ibv_create_cq(cqe=256) failed: Connection timed out
[1739904786.701179] [ohm:372166:0]        ib_iface.c:1059 UCX  ERROR ibv_create_cq(cqe=256) failed: Connection timed out
[1739904786.725706] [ohm:372179:0]        ib_iface.c:1059 UCX  ERROR ibv_create_cq(cqe=256) failed: Connection timed out
[1739904786.744643] [ohm:372172:0]        ib_iface.c:1059 UCX  ERROR ibv_create_cq(cqe=256) failed: Connection timed out
[1739904786.748500] [ohm:372186:0]        ib_iface.c:1059 UCX  ERROR ibv_create_cq(cqe=256) failed: Connection timed out
[1739904786.760732] [ohm:372176:0]        ib_iface.c:1059 UCX  ERROR ibv_create_cq(cqe=256) failed: Connection timed out
[1739904786.769481] [ohm:372173:0]        ib_iface.c:1059 UCX  ERROR ibv_create_cq(cqe=256) failed: Connection timed out
[1739904786.778484] [ohm:372300:0]        ib_iface.c:1059 UCX  ERROR ibv_create_cq(cqe=256) failed: Connection timed out
[1739904786.779551] [ohm:372280:0]        ib_iface.c:1059 UCX  ERROR ibv_create_cq(cqe=256) failed: Connection timed out
[1739904786.781693] [ohm:372181:0]        ib_iface.c:1059 UCX  ERROR ibv_create_cq(cqe=256) failed: Connection timed out
[1739904786.819793] [ohm:372182:0]        ib_iface.c:1059 UCX  ERROR ibv_create_cq(cqe=256) failed: Connection timed out
[1739904786.823199] [ohm:372283:0]        ib_iface.c:1059 UCX  ERROR ibv_create_cq(cqe=256) failed: Connection timed out
[1739904786.825064] [ohm:372174:0]        ib_iface.c:1059 UCX  ERROR ibv_create_cq(cqe=256) failed: Connection timed out
[1739904786.833179] [ohm:372184:0]        ib_iface.c:1059 UCX  ERROR ibv_create_cq(cqe=256) failed: Connection timed out
[1739904786.836570] [ohm:372171:0]        ib_iface.c:1059 UCX  ERROR ibv_create_cq(cqe=256) failed: Connection timed out
[1739904786.838463] [ohm:372178:0]        ib_iface.c:1059 UCX  ERROR ibv_create_cq(cqe=256) failed: Connection timed out
[1739904786.847305] [ohm:372307:0]        ib_iface.c:1059 UCX  ERROR ibv_create_cq(cqe=256) failed: Connection timed out
[1739904786.851134] [ohm:372175:0]        ib_iface.c:1059 UCX  ERROR ibv_create_cq(cqe=256) failed: Connection timed out
[1739904786.852818] [ohm:372304:0]        ib_iface.c:1059 UCX  ERROR ibv_create_cq(cqe=256) failed: Connection timed out
[1739904786.855921] [ohm:372185:0]        ib_iface.c:1059 UCX  ERROR ibv_create_cq(cqe=256) failed: Connection timed out
[1739904786.871233] [ohm:372295:0]        ib_iface.c:1059 UCX  ERROR ibv_create_cq(cqe=256) failed: Connection timed out
[1739904786.871248] [ohm:372192:0]        ib_iface.c:1059 UCX  ERROR ibv_create_cq(cqe=256) failed: Connection timed out
[1739904786.879115] [ohm:372180:0]        ib_iface.c:1059 UCX  ERROR ibv_create_cq(cqe=256) failed: Connection timed out
[1739904786.880814] [ohm:372183:0]        ib_iface.c:1059 UCX  ERROR ibv_create_cq(cqe=256) failed: Connection timed out
[1739904786.896749] [ohm:372241:0]        ib_iface.c:1059 UCX  ERROR ibv_create_cq(cqe=256) failed: Connection timed out
[1739904786.906036] [ohm:372217:0]        ib_iface.c:1059 UCX  ERROR ibv_create_cq(cqe=256) failed: Connection timed out
[1739904786.907923] [ohm:372212:0]        ib_iface.c:1059 UCX  ERROR ibv_create_cq(cqe=256) failed: Connection timed out
[1739904786.911033] [ohm:372262:0]        ib_iface.c:1059 UCX  ERROR ibv_create_cq(cqe=256) failed: Connection timed out
[1739904786.929263] [ohm:372266:0]        ib_iface.c:1059 UCX  ERROR ibv_create_cq(cqe=256) failed: Connection timed out
[1739904786.931925] [ohm:372177:0]        ib_iface.c:1059 UCX  ERROR ibv_create_cq(cqe=256) failed: Connection timed out
[1739904786.933761] [ohm:372290:0]        ib_iface.c:1059 UCX  ERROR ibv_create_cq(cqe=256) failed: Connection timed out
[1739904786.936667] [ohm:372220:0]        ib_iface.c:1059 UCX  ERROR ibv_create_cq(cqe=256) failed: Connection timed out
[1739904786.942582] [ohm:372296:0]        ib_iface.c:1059 UCX  ERROR ibv_create_cq(cqe=256) failed: Connection timed out
[1739904786.949405] [ohm:372259:0]        ib_iface.c:1059 UCX  ERROR ibv_create_cq(cqe=256) failed: Connection timed out
[1739904786.949953] [ohm:372194:0]        ib_iface.c:1059 UCX  ERROR ibv_create_cq(cqe=256) failed: Connection timed out
[1739904786.956615] [ohm:372287:0]        ib_iface.c:1059 UCX  ERROR ibv_create_cq(cqe=256) failed: Connection timed out
[1739904786.956628] [ohm:372237:0]        ib_iface.c:1059 UCX  ERROR ibv_create_cq(cqe=256) failed: Connection timed out
[1739904786.957771] [ohm:372198:0]        ib_iface.c:1059 UCX  ERROR ibv_create_cq(cqe=256) failed: Connection timed out
[1739904786.959663] [ohm:372277:0]        ib_iface.c:1059 UCX  ERROR ibv_create_cq(cqe=256) failed: Connection timed out
[1739904786.975052] [ohm:372271:0]        ib_iface.c:1059 UCX  ERROR ibv_create_cq(cqe=256) failed: Connection timed out
[1739904786.981704] [ohm:372245:0]        ib_iface.c:1059 UCX  ERROR ibv_create_cq(cqe=256) failed: Connection timed out
[1739904786.982781] [ohm:372248:0]        ib_iface.c:1059 UCX  ERROR ibv_create_cq(cqe=256) failed: Connection timed out
[1739904786.983144] [ohm:372208:0]        ib_iface.c:1059 UCX  ERROR ibv_create_cq(cqe=256) failed: Connection timed out
[1739904786.983673] [ohm:372188:0]        ib_iface.c:1059 UCX  ERROR ibv_create_cq(cqe=256) failed: Connection timed out
[1739904786.986528] [ohm:372190:0]        ib_iface.c:1059 UCX  ERROR ibv_create_cq(cqe=256) failed: Connection timed out
[1739904786.987362] [ohm:372254:0]        ib_iface.c:1059 UCX  ERROR ibv_create_cq(cqe=256) failed: Connection timed out
[1739904786.988388] [ohm:372251:0]        ib_iface.c:1059 UCX  ERROR ibv_create_cq(cqe=256) failed: Connection timed out
[1739904786.989071] [ohm:372201:0]        ib_iface.c:1059 UCX  ERROR ibv_create_cq(cqe=256) failed: Connection timed out
[1739904786.989754] [ohm:372274:0]        ib_iface.c:1059 UCX  ERROR ibv_create_cq(cqe=256) failed: Connection timed out
[1739904786.993027] [ohm:372189:0]        ib_iface.c:1059 UCX  ERROR ibv_create_cq(cqe=256) failed: Connection timed out
[1739904786.995552] [ohm:372226:0]        ib_iface.c:1059 UCX  ERROR ibv_create_cq(cqe=256) failed: Connection timed out
[1739904786.999370] [ohm:372191:0]        ib_iface.c:1059 UCX  ERROR ibv_create_cq(cqe=256) failed: Connection timed out
[1739904786.999713] [ohm:372221:0]        ib_iface.c:1059 UCX  ERROR ibv_create_cq(cqe=256) failed: Connection timed out
[1739904787.003559] [ohm:372228:0]        ib_iface.c:1059 UCX  ERROR ibv_create_cq(cqe=256) failed: Connection timed out
[1739904787.006127] [ohm:372231:0]        ib_iface.c:1059 UCX  ERROR ibv_create_cq(cqe=256) failed: Connection timed out
[1739904787.008267] [ohm:372215:0]        ib_iface.c:1059 UCX  ERROR ibv_create_cq(cqe=256) failed: Connection timed out
[1739904787.008632] [ohm:372311:0]        ib_iface.c:1059 UCX  ERROR ibv_create_cq(cqe=256) failed: Connection timed out
[1739904787.013955] [ohm:372269:0]        ib_iface.c:1059 UCX  ERROR ibv_create_cq(cqe=256) failed: Connection timed out
[1739904787.014322] [ohm:372187:0]        ib_iface.c:1059 UCX  ERROR ibv_create_cq(cqe=256) failed: Connection timed out


           ************************************************************
           *        Program running with 64 parallel MPI-processes    *
           *              working on a common directory               *
           ************************************************************
------------------------------------------------------------------------------
                             ORCA STARTUP CALCULATIONS
                           -- RI-GTO INTEGRALS CHOSEN --
------------------------------------------------------------------------------
------------------------------------------------------------------------------
                   ___                                                        
                  /   \      - P O W E R E D   B Y -                         
                 /     \                                                     
                 |  |  |   _    _      __       _____    __    __             
                 |  |  |  | |  | |    /  \     |  _  \  |  |  /  |          
                  \  \/   | |  | |   /    \    | | | |  |  | /  /          
                 / \  \   | |__| |  /  /\  \   | |_| |  |  |/  /          
                |  |  |   |  __  | /  /__\  \  |    /   |      \           
                |  |  |   | |  | | |   __   |  |    \   |  |\   \          
                \     /   | |  | | |  |  |  |  | |\  \  |  | \   \       
                 \___/    |_|  |_| |__|  |__|  |_| \__\ |__|  \__/        
                                                                              
                      - O R C A' S   B I G   F R I E N D -                    
                                      &                                       
                       - I N T E G R A L  F E E D E R -                       
                                                                              
 v1 FN, 2020, v2 2021, v3 2022-2024                                           
------------------------------------------------------------------------------


----------------------
SHARK INTEGRAL PACKAGE
----------------------

Number of atoms                             ...     30
Number of basis functions                   ...    882
Number of shells                            ...    322
Maximum angular momentum                    ...      3
Integral batch strategy                     ... SHARK/LIBINT Hybrid
RI-J (if used) integral strategy            ... SPLIT-RIJ (Revised 2003 algorithm where possible)
Printlevel                                  ...      1
Contraction scheme used                     ... SEGMENTED contraction
Prescreening option                         ... SCHWARTZ
   Thresh                                   ... 2.500e-11
   Tcut                                     ... 2.500e-12
   Tpresel                                  ... 2.500e-12 
Coulomb Range Separation                    ... NOT USED
Exchange Range Separation                   ... Long Range
   Mu parameter                             ... 3.000e-01
   Scaling (regular/separated)              ... 1.500e-01 8.500e-01
Multipole approximations                    ... NOT USED
Finite Nucleus Model                        ... NOT USED
CABS basis                                  ... NOT available
Auxiliary Coulomb fitting basis             ... AVAILABLE
   # of basis functions in Aux-J            ...   1014
   # of shells in Aux-J                     ...    330
   Maximum angular momentum in Aux-J        ...      4
Auxiliary J/K fitting basis                 ... NOT available
Auxiliary Correlation fitting basis         ... NOT available
Auxiliary 'external' fitting basis          ... NOT available

Checking pre-screening integrals            ... done (  0.0 sec) Dimension = 322
Check shell pair data                       ... done (  0.0 sec)
Shell pair information
Shell pair cut-off parameter TPreSel        ...   2.5e-12
Total number of shell pairs                 ...     52003
Shell pairs after pre-screening             ...     45483
Total number of primitive shell pairs       ...    129718
Primitive shell pairs kept                  ...     85333
          la=0 lb=0:   8805 shell pairs
          la=1 lb=0:  12021 shell pairs
          la=1 lb=1:   4139 shell pairs
          la=2 lb=0:   8170 shell pairs
          la=2 lb=1:   5644 shell pairs
          la=2 lb=2:   1951 shell pairs
          la=3 lb=0:   2107 shell pairs
          la=3 lb=1:   1484 shell pairs
          la=3 lb=2:   1015 shell pairs
          la=3 lb=3:    147 shell pairs

Calculating one electron integrals          ... done (  0.2 sec)
Calculating RI/J V-Matrix + Cholesky decomp.... done (  0.1 sec)
Calculating Nuclear repulsion               ... done (  0.0 sec) ENN=   1466.058742954079 Eh

Diagonalization of the overlap matrix:
Smallest eigenvalue                        ... 5.653e-07
Time for diagonalization                   ...    0.124 sec
Threshold for overlap eigenvalues          ... 1.000e-07
Number of eigenvalues below threshold      ... 0

IMPORTANT:
Smallest eigenvalue of S below the DiffSThresh (1.000e-06) while
Thresh>1e-12 and/or TCut>1e-13! In order to avoid SCF convergence issues,
Thresh will be set to at least 1e-12 and TCut to at least 1e-13.
This can be turned off by adding %SCF DiffSThresh -1 END to the input.

Time for construction of square roots      ...    0.134 sec
Total time needed                          ...    0.273 sec

-------------------
DFT GRID GENERATION
-------------------

General Integration Accuracy     IntAcc      ... 4.388
Radial Grid Type                 RadialGrid  ... OptM3 with GC (2021)
Angular Grid (max. ang.)         AngularGrid ... 4 (Lebedev-302)
Angular grid pruning method      GridPruning ... 4 (adaptive)
Weight generation scheme         WeightScheme... mBecke (2022)
Basis function cutoff            BFCut       ... 1.0000e-11
Integration weight cutoff        WCut        ... 1.0000e-14
Partially contracted basis set               ... off
Rotationally invariant grid construction     ... off
Angular grids for H and He will be reduced by one unit
Diffuse basis detected: some atoms will have their outermost
                        angular grid increased by 1.

Total number of grid points                  ...   151643
Total number of batches                      ...     2387
Average number of points per batch           ...       63
Average number of grid points per atom       ...     5055

--------------------
COSX GRID GENERATION
--------------------

GRIDX 1
-------
General Integration Accuracy     IntAcc      ... 3.816
Radial Grid Type                 RadialGrid  ... OptM3 with GC (2021)
Angular Grid (max. ang.)         AngularGrid ... 1 (Lebedev-50)
Angular grid pruning method      GridPruning ... 4 (adaptive)
Weight generation scheme         WeightScheme... mBecke (2022)
Basis function cutoff            BFCut       ... 1.0000e-11
Integration weight cutoff        WCut        ... 1.0000e-14
Partially contracted basis set               ... on
Rotationally invariant grid construction     ... off
Angular grids for H and He will be reduced by one unit
Diffuse basis detected: some atoms will have their outermost
                        angular grid increased by 1.

Total number of grid points                  ...    19031
Total number of batches                      ...      165
Average number of points per batch           ...      115
Average number of grid points per atom       ...      634
UseSFitting                                  ... on

GRIDX 2
-------
General Integration Accuracy     IntAcc      ... 4.020
Radial Grid Type                 RadialGrid  ... OptM3 with GC (2021)
Angular Grid (max. ang.)         AngularGrid ... 2 (Lebedev-110)
Angular grid pruning method      GridPruning ... 4 (adaptive)
Weight generation scheme         WeightScheme... mBecke (2022)
Basis function cutoff            BFCut       ... 1.0000e-11
Integration weight cutoff        WCut        ... 1.0000e-14
Partially contracted basis set               ... on
Rotationally invariant grid construction     ... off
Angular grids for H and He will be reduced by one unit
Diffuse basis detected: some atoms will have their outermost
                        angular grid increased by 1.

Total number of grid points                  ...    45716
Total number of batches                      ...      372
Average number of points per batch           ...      122
Average number of grid points per atom       ...     1524
UseSFitting                                  ... on

GRIDX 3
-------
General Integration Accuracy     IntAcc      ... 4.338
Radial Grid Type                 RadialGrid  ... OptM3 with GC (2021)
Angular Grid (max. ang.)         AngularGrid ... 3 (Lebedev-194)
Angular grid pruning method      GridPruning ... 4 (adaptive)
Weight generation scheme         WeightScheme... mBecke (2022)
Basis function cutoff            BFCut       ... 1.0000e-11
Integration weight cutoff        WCut        ... 1.0000e-14
Partially contracted basis set               ... on
Rotationally invariant grid construction     ... off
Angular grids for H and He will be reduced by one unit
Diffuse basis detected: some atoms will have their outermost
                        angular grid increased by 1.

Total number of grid points                  ...   100577
Total number of batches                      ...      801
Average number of points per batch           ...      125
Average number of grid points per atom       ...     3353
UseSFitting                                  ... on
Initializing property integral containers    ... done (  0.0 sec)

SHARK setup successfully completed in   4.3 seconds

Maximum memory used throughout the entire STARTUP-calculation: 80.7 MB
[1739904793.121309] [ohm:372545:0]        ib_iface.c:1059 UCX  ERROR ibv_create_cq(cqe=256) failed: Connection timed out
[1739904793.128081] [ohm:372535:0]        ib_iface.c:1059 UCX  ERROR ibv_create_cq(cqe=256) failed: Connection timed out
[1739904793.129451] [ohm:372538:0]        ib_iface.c:1059 UCX  ERROR ibv_create_cq(cqe=256) failed: Connection timed out
[1739904793.142192] [ohm:372548:0]        ib_iface.c:1059 UCX  ERROR ibv_create_cq(cqe=256) failed: Connection timed out
[1739904793.146854] [ohm:372541:0]        ib_iface.c:1059 UCX  ERROR ibv_create_cq(cqe=256) failed: Connection timed out
[1739904793.161699] [ohm:372549:0]        ib_iface.c:1059 UCX  ERROR ibv_create_cq(cqe=256) failed: Connection timed out
[1739904793.164273] [ohm:372543:0]        ib_iface.c:1059 UCX  ERROR ibv_create_cq(cqe=256) failed: Connection timed out
[1739904793.164825] [ohm:372559:0]        ib_iface.c:1059 UCX  ERROR ibv_create_cq(cqe=256) failed: Connection timed out
[1739904793.205407] [ohm:372547:0]        ib_iface.c:1059 UCX  ERROR ibv_create_cq(cqe=256) failed: Connection timed out
[1739904793.218691] [ohm:372564:0]        ib_iface.c:1059 UCX  ERROR ibv_create_cq(cqe=256) failed: Connection timed out
[1739904793.227030] [ohm:372561:0]        ib_iface.c:1059 UCX  ERROR ibv_create_cq(cqe=256) failed: Connection timed out
[1739904793.241159] [ohm:372553:0]        ib_iface.c:1059 UCX  ERROR ibv_create_cq(cqe=256) failed: Connection timed out
[1739904793.263402] [ohm:372588:0]        ib_iface.c:1059 UCX  ERROR ibv_create_cq(cqe=256) failed: Connection timed out
[1739904793.281407] [ohm:372558:0]        ib_iface.c:1059 UCX  ERROR ibv_create_cq(cqe=256) failed: Connection timed out
[1739904793.282921] [ohm:372617:0]        ib_iface.c:1059 UCX  ERROR ibv_create_cq(cqe=256) failed: Connection timed out
[1739904793.286996] [ohm:372546:0]        ib_iface.c:1059 UCX  ERROR ibv_create_cq(cqe=256) failed: Connection timed out
[1739904793.292912] [ohm:372599:0]        ib_iface.c:1059 UCX  ERROR ibv_create_cq(cqe=256) failed: Connection timed out
[1739904793.299163] [ohm:372590:0]        ib_iface.c:1059 UCX  ERROR ibv_create_cq(cqe=256) failed: Connection timed out
[1739904793.300135] [ohm:372555:0]        ib_iface.c:1059 UCX  ERROR ibv_create_cq(cqe=256) failed: Connection timed out
[1739904793.301879] [ohm:372567:0]        ib_iface.c:1059 UCX  ERROR ibv_create_cq(cqe=256) failed: Connection timed out
[1739904793.323987] [ohm:372550:0]        ib_iface.c:1059 UCX  ERROR ibv_create_cq(cqe=256) failed: Connection timed out
[1739904793.340131] [ohm:372544:0]        ib_iface.c:1059 UCX  ERROR ibv_create_cq(cqe=256) failed: Connection timed out
[1739904793.343649] [ohm:372539:0]        ib_iface.c:1059 UCX  ERROR ibv_create_cq(cqe=256) failed: Connection timed out
[1739904793.352881] [ohm:372584:0]        ib_iface.c:1059 UCX  ERROR ibv_create_cq(cqe=256) failed: Connection timed out
[1739904793.353407] [ohm:372669:0]        ib_iface.c:1059 UCX  ERROR ibv_create_cq(cqe=256) failed: Connection timed out
[1739904793.363169] [ohm:372608:0]        ib_iface.c:1059 UCX  ERROR ibv_create_cq(cqe=256) failed: Connection timed out
[1739904793.365815] [ohm:372537:0]        ib_iface.c:1059 UCX  ERROR ibv_create_cq(cqe=256) failed: Connection timed out
[1739904793.366881] [ohm:372638:0]        ib_iface.c:1059 UCX  ERROR ibv_create_cq(cqe=256) failed: Connection timed out
[1739904793.367467] [ohm:372540:0]        ib_iface.c:1059 UCX  ERROR ibv_create_cq(cqe=256) failed: Connection timed out
[1739904793.369741] [ohm:372542:0]        ib_iface.c:1059 UCX  ERROR ibv_create_cq(cqe=256) failed: Connection timed out
[1739904793.381317] [ohm:372628:0]        ib_iface.c:1059 UCX  ERROR ibv_create_cq(cqe=256) failed: Connection timed out
[1739904793.382939] [ohm:372620:0]        ib_iface.c:1059 UCX  ERROR ibv_create_cq(cqe=256) failed: Connection timed out
[1739904793.385124] [ohm:372613:0]        ib_iface.c:1059 UCX  ERROR ibv_create_cq(cqe=256) failed: Connection timed out
[1739904793.385460] [ohm:372556:0]        ib_iface.c:1059 UCX  ERROR ibv_create_cq(cqe=256) failed: Connection timed out
[1739904793.387397] [ohm:372536:0]        ib_iface.c:1059 UCX  ERROR ibv_create_cq(cqe=256) failed: Connection timed out
[1739904793.399688] [ohm:372572:0]        ib_iface.c:1059 UCX  ERROR ibv_create_cq(cqe=256) failed: Connection timed out
[1739904793.402905] [ohm:372565:0]        ib_iface.c:1059 UCX  ERROR ibv_create_cq(cqe=256) failed: Connection timed out
[1739904793.405636] [ohm:372580:0]        ib_iface.c:1059 UCX  ERROR ibv_create_cq(cqe=256) failed: Connection timed out
[1739904793.412323] [ohm:372637:0]        ib_iface.c:1059 UCX  ERROR ibv_create_cq(cqe=256) failed: Connection timed out
[1739904793.414377] [ohm:372630:0]        ib_iface.c:1059 UCX  ERROR ibv_create_cq(cqe=256) failed: Connection timed out
[1739904793.414454] [ohm:372667:0]        ib_iface.c:1059 UCX  ERROR ibv_create_cq(cqe=256) failed: Connection timed out
[1739904793.416042] [ohm:372655:0]        ib_iface.c:1059 UCX  ERROR ibv_create_cq(cqe=256) failed: Connection timed out
[1739904793.420642] [ohm:372554:0]        ib_iface.c:1059 UCX  ERROR ibv_create_cq(cqe=256) failed: Connection timed out
[1739904793.428465] [ohm:372652:0]        ib_iface.c:1059 UCX  ERROR ibv_create_cq(cqe=256) failed: Connection timed out
[1739904793.430207] [ohm:372643:0]        ib_iface.c:1059 UCX  ERROR ibv_create_cq(cqe=256) failed: Connection timed out
[1739904793.431475] [ohm:372645:0]        ib_iface.c:1059 UCX  ERROR ibv_create_cq(cqe=256) failed: Connection timed out
[1739904793.438954] [ohm:372661:0]        ib_iface.c:1059 UCX  ERROR ibv_create_cq(cqe=256) failed: Connection timed out
[1739904793.439761] [ohm:372557:0]        ib_iface.c:1059 UCX  ERROR ibv_create_cq(cqe=256) failed: Connection timed out
[1739904793.442019] [ohm:372560:0]        ib_iface.c:1059 UCX  ERROR ibv_create_cq(cqe=256) failed: Connection timed out
[1739904793.443561] [ohm:372592:0]        ib_iface.c:1059 UCX  ERROR ibv_create_cq(cqe=256) failed: Connection timed out
[1739904793.449481] [ohm:372576:0]        ib_iface.c:1059 UCX  ERROR ibv_create_cq(cqe=256) failed: Connection timed out
[1739904793.451153] [ohm:372672:0]        ib_iface.c:1059 UCX  ERROR ibv_create_cq(cqe=256) failed: Connection timed out
[1739904793.451712] [ohm:372622:0]        ib_iface.c:1059 UCX  ERROR ibv_create_cq(cqe=256) failed: Connection timed out
[1739904793.452713] [ohm:372586:0]        ib_iface.c:1059 UCX  ERROR ibv_create_cq(cqe=256) failed: Connection timed out
[1739904793.456317] [ohm:372662:0]        ib_iface.c:1059 UCX  ERROR ibv_create_cq(cqe=256) failed: Connection timed out
[1739904793.457171] [ohm:372552:0]        ib_iface.c:1059 UCX  ERROR ibv_create_cq(cqe=256) failed: Connection timed out
[1739904793.460372] [ohm:372626:0]        ib_iface.c:1059 UCX  ERROR ibv_create_cq(cqe=256) failed: Connection timed out
[1739904793.460687] [ohm:372649:0]        ib_iface.c:1059 UCX  ERROR ibv_create_cq(cqe=256) failed: Connection timed out
[1739904793.462489] [ohm:372551:0]        ib_iface.c:1059 UCX  ERROR ibv_create_cq(cqe=256) failed: Connection timed out
[1739904793.464796] [ohm:372632:0]        ib_iface.c:1059 UCX  ERROR ibv_create_cq(cqe=256) failed: Connection timed out
[1739904793.467175] [ohm:372679:0]        ib_iface.c:1059 UCX  ERROR ibv_create_cq(cqe=256) failed: Connection timed out
[1739904793.467905] [ohm:372685:0]        ib_iface.c:1059 UCX  ERROR ibv_create_cq(cqe=256) failed: Connection timed out
[1739904793.471186] [ohm:372605:0]        ib_iface.c:1059 UCX  ERROR ibv_create_cq(cqe=256) failed: Connection timed out
[1739904793.473579] [ohm:372596:0]        ib_iface.c:1059 UCX  ERROR ibv_create_cq(cqe=256) failed: Connection timed out


           ************************************************************
           *        Program running with 64 parallel MPI-processes    *
           *              working on a common directory               *
           ************************************************************
-------------------------------------------------------------------------------
                                 ORCA GUESS
                   Start orbitals & Density for SCF / CASSCF
-------------------------------------------------------------------------------

------------
SCF SETTINGS
------------
Hamiltonian:
 Density Functional     Method          .... DFT(GTOs)
  Functional kind                       .... Exchange-Correlation
  Functional name                       .... wB97M-V exchange-correlation functional
  Functional family                     .... Hybrid MGGA
  Functional refs                              
    [ 0] N. Mardirossian and M. Head-Gordon.,  J. Chem. Phys. 144, 214110 (2016), doi: 10.1063/1.4952647
  Fraction of HF Exchange (short range) .... 0.1500
  Fraction of HF Exchange (long range)  .... 1.0000
  Range separation parameter mu         .... 0.3000
  Functional external parameters        .... 17
    Parameter  0 _cx00      =  8.500000e-01 : u^00 coefficient for exchange
    Parameter  1 _cx01      =  1.007000e+00 : u^01 coefficient for exchange
    Parameter  2 _cx10      =  2.590000e-01 : u^10 coefficient for exchange
    Parameter  3 _css00     =  4.430000e-01 : u^00 coefficient for same-spin correlation
    Parameter  4 _css04     = -1.437000e+00 : u^04 coefficient for same-spin correlation
    Parameter  5 _css10     = -4.535000e+00 : u^10 coefficient for same-spin correlation
    Parameter  6 _css20     = -3.390000e+00 : u^20 coefficient for same-spin correlation
    Parameter  7 _css43     =  4.278000e+00 : u^43 coefficient for same-spin correlation
    Parameter  8 _cos00     =  1.000000e+00 : u^00 coefficient for opposite-spin correlation
    Parameter  9 _cos10     =  1.358000e+00 : u^10 coefficient for opposite-spin correlation
    Parameter 10 _cos20     =  2.924000e+00 : u^20 coefficient for opposite-spin correlation
    Parameter 11 _cos21     = -8.812000e+00 : u^21 coefficient for opposite-spin correlation
    Parameter 12 _cos60     = -1.390000e+00 : u^60 coefficient for opposite-spin correlation
    Parameter 13 _cos61     =  9.142000e+00 : u^61 coefficient for opposite-spin correlation
    Parameter 14 _alpha     =  1.000000e+00 : fraction of HF exchange
    Parameter 15 _beta      = -8.500000e-01 : fraction of short-range exchange
    Parameter 16 _omega     =  3.000000e-01 : range-separation constant
 Long-range corrected/Screened/Range-Separated Hybrid DFT is turned on
   Amount of maximum screened exact exchange              ....  0.850000
   Range separation parameter mu (erf(mu*r12)/r12)        ....  0.300000
 RI-approximation to the Coulomb term is turned on
   Number of AuxJ basis functions       .... 1014
   RIJ-COSX (HFX calculated with COS-X)).... on


General Settings:
 Integral files         IntName         .... orca
 Hartree-Fock type      HFTyp           .... UHF
 Total Charge           Charge          ....    0
 Multiplicity           Mult            ....    3
 Number of Electrons    NEL             ....  132
 Basis Dimension        Dim             ....  882
 Nuclear Repulsion      ENuc            ....   1466.0587429541 Eh

Convergence Acceleration:
 AO-DIIS                CNVDIIS         .... on
   Start iteration      DIISMaxIt       ....    12
   Startup error        DIISStart       ....  0.200000
   # of expansion vecs  DIISMaxEq       ....     5
   Bias factor          DIISBfac        ....   1.050
   Max. coefficient     DIISMaxC        ....  10.000
 MO-DIIS                CNVKDIIS        .... off
 Trust-Rad. Augm. Hess. CNVTRAH         .... auto
   Auto Start mean grad. ratio tolernc. ....  1.125000
   Auto Start start iteration           ....    50
   Auto Start num. interpolation iter.  ....    10
   Max. Number of Micro iterations      ....    24
   Max. Number of Macro iterations      .... Maxiter - #DIIS iter
   Number of Davidson start vectors     ....     2
   Converg. threshold    (grad. norm)   ....   1.000e-05
   Grad. Scal. Fac. for Micro threshold ....   0.100
   Minimum threshold for Micro iter.    ....   1.000e-02
   NR start threshold (gradient norm)   ....   1.000e-04
   Initial trust radius                 ....   0.400
   Minimum AH scaling param. (alpha)    ....   1.000
   Maximum AH scaling param. (alpha)    .... 1000.000
   Quad. conv. algorithm                .... NR
   White noise on init. David. guess    .... on
   Maximum white noise                  ....   0.010
   Pseudo random numbers                .... off
   Inactive MOs                         .... canonical
   Orbital update algorithm             .... Taylor
   Preconditioner                       .... Diag
   Full preconditioner red. dimension   ....   250
 SOSCF                  CNVSOSCF        .... on
   Start iteration      SOSCFMaxIt      ....   150
   Startup grad/error   SOSCFStart      ....  0.003300
   Hessian update       SOSCFHessUp     .... L-BFGS
 Level Shifting         CNVShift        .... on
   Level shift para.    LevelShift      ....    0.2500
   Turn off err/grad.   ShiftErr        ....    0.0010
 Zerner damping         CNVZerner       .... off
 Static damping         CNVDamp         .... on
   Fraction old density DampFac         ....    0.7000
   Max. Damping (<1)    DampMax         ....    0.9800
   Min. Damping (>=0)   DampMin         ....    0.0000
   Turn off err/grad.   DampErr         ....    0.1000

SCF Procedure:
 Maximum # iterations   MaxIter         ....   125
 SCF integral mode      SCFMode         .... Direct
   Integral package                     .... SHARK and LIBINT hybrid scheme
 Reset frequency        DirectResetFreq ....    20
 Integral Threshold     Thresh          ....  1.000e-12 Eh
 Primitive CutOff       TCut            ....  1.000e-13 Eh

Convergence Tolerance:
 Convergence Check Mode ConvCheckMode   .... Total+1el-Energy
 Convergence forced     ConvForced      .... 1
 Energy Change          TolE            ....  1.000e-08 Eh
 1-El. energy change                    ....  1.000e-05 Eh
 Orbital Gradient       TolG            ....  1.000e-05
 Orbital Rotation angle TolX            ....  1.000e-05
 DIIS Error             TolErr          ....  5.000e-07

------------------------------
INITIAL GUESS: MODEL POTENTIAL
------------------------------
Loading Hartree-Fock densities                     ... done
Calculating cut-offs                               ... done
Initializing the effective Hamiltonian             ... done
Setting up the integral package (SHARK)            ... done
Starting the Coulomb interaction                   ... done (   0.1 sec)
Making the grid                                    ... done (   0.3 sec)
Mapping shells                                     ... done
Starting the XC term evaluation                    ... done (   0.1 sec)
  promolecular density results
     # of electrons  =    131.993202562
     EX              =   -113.590421485
     EC              =     -4.507102757
     EX+EC           =   -118.097524242
Transforming the Hamiltonian                       ... done (   0.1 sec)
Diagonalizing the Hamiltonian                      ... done (   0.1 sec)
Back transforming the eigenvectors                 ... done (   0.2 sec)
Now organizing SCF variables                       ... done
                      ------------------
                      INITIAL GUESS DONE (   1.2 sec)
                      ------------------
             **** ENERGY FILE WAS UPDATED (orca.en.tmp) ****
Finished Guess after   3.7 sec
Maximum memory used throughout the entire GUESS-calculation: 73.1 MB
[1739904797.522267] [ohm:372897:0]        ib_iface.c:1059 UCX  ERROR ibv_create_cq(cqe=256) failed: Connection timed out
[1739904797.533548] [ohm:372896:0]        ib_iface.c:1059 UCX  ERROR ibv_create_cq(cqe=256) failed: Connection timed out
[1739904797.540082] [ohm:372893:0]        ib_iface.c:1059 UCX  ERROR ibv_create_cq(cqe=256) failed: Connection timed out
[1739904797.563318] [ohm:372919:0]        ib_iface.c:1059 UCX  ERROR ibv_create_cq(cqe=256) failed: Connection timed out
[1739904797.570918] [ohm:372899:0]        ib_iface.c:1059 UCX  ERROR ibv_create_cq(cqe=256) failed: Connection timed out
[1739904797.578659] [ohm:372901:0]        ib_iface.c:1059 UCX  ERROR ibv_create_cq(cqe=256) failed: Connection timed out
[1739904797.597306] [ohm:372915:0]        ib_iface.c:1059 UCX  ERROR ibv_create_cq(cqe=256) failed: Connection timed out
[1739904797.604054] [ohm:372903:0]        ib_iface.c:1059 UCX  ERROR ibv_create_cq(cqe=256) failed: Connection timed out
[1739904797.607733] [ohm:372902:0]        ib_iface.c:1059 UCX  ERROR ibv_create_cq(cqe=256) failed: Connection timed out
[1739904797.611484] [ohm:372898:0]        ib_iface.c:1059 UCX  ERROR ibv_create_cq(cqe=256) failed: Connection timed out
[1739904797.617201] [ohm:372894:0]        ib_iface.c:1059 UCX  ERROR ibv_create_cq(cqe=256) failed: Connection timed out
[1739904797.625131] [ohm:372916:0]        ib_iface.c:1059 UCX  ERROR ibv_create_cq(cqe=256) failed: Connection timed out
[1739904797.626059] [ohm:372907:0]        ib_iface.c:1059 UCX  ERROR ibv_create_cq(cqe=256) failed: Connection timed out
[1739904797.628692] [ohm:372955:0]        ib_iface.c:1059 UCX  ERROR ibv_create_cq(cqe=256) failed: Connection timed out
[1739904797.634509] [ohm:372921:0]        ib_iface.c:1059 UCX  ERROR ibv_create_cq(cqe=256) failed: Connection timed out
[1739904797.643822] [ohm:372928:0]        ib_iface.c:1059 UCX  ERROR ibv_create_cq(cqe=256) failed: Connection timed out
[1739904797.650183] [ohm:372914:0]        ib_iface.c:1059 UCX  ERROR ibv_create_cq(cqe=256) failed: Connection timed out
[1739904797.656403] [ohm:372913:0]        ib_iface.c:1059 UCX  ERROR ibv_create_cq(cqe=256) failed: Connection timed out
[1739904797.658384] [ohm:372895:0]        ib_iface.c:1059 UCX  ERROR ibv_create_cq(cqe=256) failed: Connection timed out
[1739904797.678349] [ohm:372949:0]        ib_iface.c:1059 UCX  ERROR ibv_create_cq(cqe=256) failed: Connection timed out
[1739904797.688741] [ohm:372922:0]        ib_iface.c:1059 UCX  ERROR ibv_create_cq(cqe=256) failed: Connection timed out
[1739904797.695006] [ohm:372908:0]        ib_iface.c:1059 UCX  ERROR ibv_create_cq(cqe=256) failed: Connection timed out
[1739904797.711214] [ohm:372906:0]        ib_iface.c:1059 UCX  ERROR ibv_create_cq(cqe=256) failed: Connection timed out
[1739904797.711762] [ohm:372951:0]        ib_iface.c:1059 UCX  ERROR ibv_create_cq(cqe=256) failed: Connection timed out
[1739904797.746084] [ohm:372981:0]        ib_iface.c:1059 UCX  ERROR ibv_create_cq(cqe=256) failed: Connection timed out
[1739904797.747692] [ohm:372910:0]        ib_iface.c:1059 UCX  ERROR ibv_create_cq(cqe=256) failed: Connection timed out
[1739904797.761191] [ohm:373031:0]        ib_iface.c:1059 UCX  ERROR ibv_create_cq(cqe=256) failed: Connection timed out
[1739904797.768412] [ohm:372905:0]        ib_iface.c:1059 UCX  ERROR ibv_create_cq(cqe=256) failed: Connection timed out
[1739904797.775428] [ohm:372923:0]        ib_iface.c:1059 UCX  ERROR ibv_create_cq(cqe=256) failed: Connection timed out
[1739904797.784730] [ohm:372964:0]        ib_iface.c:1059 UCX  ERROR ibv_create_cq(cqe=256) failed: Connection timed out
[1739904797.785160] [ohm:372990:0]        ib_iface.c:1059 UCX  ERROR ibv_create_cq(cqe=256) failed: Connection timed out
[1739904797.795198] [ohm:372933:0]        ib_iface.c:1059 UCX  ERROR ibv_create_cq(cqe=256) failed: Connection timed out
[1739904797.802724] [ohm:373027:0]        ib_iface.c:1059 UCX  ERROR ibv_create_cq(cqe=256) failed: Connection timed out
[1739904797.803323] [ohm:372918:0]        ib_iface.c:1059 UCX  ERROR ibv_create_cq(cqe=256) failed: Connection timed out
[1739904797.808324] [ohm:372979:0]        ib_iface.c:1059 UCX  ERROR ibv_create_cq(cqe=256) failed: Connection timed out
[1739904797.813880] [ohm:373008:0]        ib_iface.c:1059 UCX  ERROR ibv_create_cq(cqe=256) failed: Connection timed out
[1739904797.820123] [ohm:372917:0]        ib_iface.c:1059 UCX  ERROR ibv_create_cq(cqe=256) failed: Connection timed out
[1739904797.824509] [ohm:372900:0]        ib_iface.c:1059 UCX  ERROR ibv_create_cq(cqe=256) failed: Connection timed out
[1739904797.825029] [ohm:372926:0]        ib_iface.c:1059 UCX  ERROR ibv_create_cq(cqe=256) failed: Connection timed out
[1739904797.826811] [ohm:373014:0]        ib_iface.c:1059 UCX  ERROR ibv_create_cq(cqe=256) failed: Connection timed out
[1739904797.831707] [ohm:372962:0]        ib_iface.c:1059 UCX  ERROR ibv_create_cq(cqe=256) failed: Connection timed out
[1739904797.834780] [ohm:372912:0]        ib_iface.c:1059 UCX  ERROR ibv_create_cq(cqe=256) failed: Connection timed out
[1739904797.838184] [ohm:373002:0]        ib_iface.c:1059 UCX  ERROR ibv_create_cq(cqe=256) failed: Connection timed out
[1739904797.841296] [ohm:372986:0]        ib_iface.c:1059 UCX  ERROR ibv_create_cq(cqe=256) failed: Connection timed out
[1739904797.852550] [ohm:372911:0]        ib_iface.c:1059 UCX  ERROR ibv_create_cq(cqe=256) failed: Connection timed out
[1739904797.857027] [ohm:373023:0]        ib_iface.c:1059 UCX  ERROR ibv_create_cq(cqe=256) failed: Connection timed out
[1739904797.857364] [ohm:372993:0]        ib_iface.c:1059 UCX  ERROR ibv_create_cq(cqe=256) failed: Connection timed out
[1739904797.865044] [ohm:372946:0]        ib_iface.c:1059 UCX  ERROR ibv_create_cq(cqe=256) failed: Connection timed out
[1739904797.866641] [ohm:373033:0]        ib_iface.c:1059 UCX  ERROR ibv_create_cq(cqe=256) failed: Connection timed out
[1739904797.871452] [ohm:372971:0]        ib_iface.c:1059 UCX  ERROR ibv_create_cq(cqe=256) failed: Connection timed out
[1739904797.872880] [ohm:372904:0]        ib_iface.c:1059 UCX  ERROR ibv_create_cq(cqe=256) failed: Connection timed out
[1739904797.878487] [ohm:372920:0]        ib_iface.c:1059 UCX  ERROR ibv_create_cq(cqe=256) failed: Connection timed out
[1739904797.880232] [ohm:373017:0]        ib_iface.c:1059 UCX  ERROR ibv_create_cq(cqe=256) failed: Connection timed out
[1739904797.881046] [ohm:372998:0]        ib_iface.c:1059 UCX  ERROR ibv_create_cq(cqe=256) failed: Connection timed out
[1739904797.886248] [ohm:372959:0]        ib_iface.c:1059 UCX  ERROR ibv_create_cq(cqe=256) failed: Connection timed out
[1739904797.887604] [ohm:372939:0]        ib_iface.c:1059 UCX  ERROR ibv_create_cq(cqe=256) failed: Connection timed out
[1739904797.889273] [ohm:373006:0]        ib_iface.c:1059 UCX  ERROR ibv_create_cq(cqe=256) failed: Connection timed out
[1739904797.889731] [ohm:373011:0]        ib_iface.c:1059 UCX  ERROR ibv_create_cq(cqe=256) failed: Connection timed out
[1739904797.892189] [ohm:372987:0]        ib_iface.c:1059 UCX  ERROR ibv_create_cq(cqe=256) failed: Connection timed out
[1739904797.892416] [ohm:373025:0]        ib_iface.c:1059 UCX  ERROR ibv_create_cq(cqe=256) failed: Connection timed out
[1739904797.893379] [ohm:372972:0]        ib_iface.c:1059 UCX  ERROR ibv_create_cq(cqe=256) failed: Connection timed out
[1739904797.894599] [ohm:373022:0]        ib_iface.c:1059 UCX  ERROR ibv_create_cq(cqe=256) failed: Connection timed out
[1739904797.895236] [ohm:372984:0]        ib_iface.c:1059 UCX  ERROR ibv_create_cq(cqe=256) failed: Connection timed out
[1739904797.895316] [ohm:372909:0]        ib_iface.c:1059 UCX  ERROR ibv_create_cq(cqe=256) failed: Connection timed out


           ************************************************************
           *        Program running with 64 parallel MPI-processes    *
           *              working on a common directory               *
           ************************************************************

-------------------------------------------------------------------------------------------
                                      ORCA LEAN-SCF
                              memory conserving SCF solver
-------------------------------------------------------------------------------------------

----------------------------------------D-I-I-S--------------------------------------------
Iteration    Energy (Eh)           Delta-E    RMSDP     MaxDP     DIISErr   Damp  Time(sec)
-------------------------------------------------------------------------------------------
               ***  Starting incremental Fock matrix formation  ***
    1    -908.1079810883272785     0.00e+00  1.71e-03  2.71e-01  1.50e-01  0.700   8.0
    2    -908.3751608048903563    -2.67e-01  1.36e-03  1.88e-01  7.13e-02  0.700   6.7
                               ***Turning on AO-DIIS***
    3    -908.4931484821065624    -1.18e-01  9.69e-04  1.26e-01  2.68e-02  0.700   5.8
    4    -908.5657901421438964    -7.26e-02  2.26e-03  2.58e-01  1.82e-02  0.000   5.7
    5    -908.7290496880602859    -1.63e-01  2.82e-04  6.35e-02  4.39e-03  0.000   5.8
                              *** Initializing SOSCF ***
---------------------------------------S-O-S-C-F--------------------------------------
Iteration    Energy (Eh)           Delta-E    RMSDP     MaxDP     MaxGrad    Time(sec)
--------------------------------------------------------------------------------------
    6    -908.7304340168018371    -1.38e-03  1.38e-04  3.82e-02  2.21e-03     6.6
               *** Restarting incremental Fock matrix formation ***
    7    -908.7310735409398603    -6.40e-04  2.31e-04  3.11e-02  6.14e-03     7.5
    8    -908.7315145303475674    -4.41e-04  2.50e-04  5.99e-02  3.36e-03     6.7
    9    -908.7316834019641192    -1.69e-04  1.04e-04  9.83e-03  8.13e-04     6.8
   10    -908.7317460711835793    -6.27e-05  3.60e-05  9.88e-03  5.24e-04     6.5
   11    -908.7317598829688450    -1.38e-05  8.28e-06  1.22e-03  1.18e-04     6.3
   12    -908.7317615971549003    -1.71e-06  5.10e-06  1.07e-03  1.22e-04     6.2
   13    -908.7317625498260441    -9.53e-07  4.42e-06  8.03e-04  4.15e-05     6.2
   14    -908.7317627756758611    -2.26e-07  1.74e-06  5.39e-04  2.72e-05     6.1
   15    -908.7317628318389779    -5.62e-08  1.44e-06  2.58e-04  1.27e-05     5.9
   16    -908.7317628567259362    -2.49e-08  1.10e-06  2.49e-04  3.88e-06     5.8
   17    -908.7317628861358116    -2.94e-08  9.25e-07  1.91e-04  2.00e-06     5.7
                  *** Gradient check signals convergence ***

               *****************************************************
               *                     SUCCESS                       *
               *           SCF CONVERGED AFTER  17 CYCLES          *
               *****************************************************

Recomputing exchange energy using gridx3       ... done (    8.515 sec)
Old exchange energy                            :    -35.051705644 Eh
New exchange energy                            :    -35.051703383 Eh
Exchange energy change after final integration :      0.000002261 Eh
Total energy after final integration           :   -908.731760625 Eh
             **** ENERGY FILE WAS UPDATED (orca.en.tmp) ****

----------------
TOTAL SCF ENERGY
----------------

Total Energy       :       -908.73176062481878 Eh          -24727.84835 eV

Components:
Nuclear Repulsion  :       1466.05874295407943 Eh           39893.48654 eV
Electronic Energy  :      -2374.79050584021525 Eh          -64621.33495 eV
One Electron Energy:      -4148.88848491630324 Eh         -112896.99525 eV
Two Electron Energy:       1774.09797907608800 Eh           48275.66030 eV

Virial components:
Potential Energy   :      -1814.80532773862524 Eh          -49383.36357 eV
Kinetic Energy     :        906.07356711380658 Eh           24655.51522 eV
Virial Ratio       :          2.00293375020251

DFT components:
N(Alpha)           :       66.999953763097 electrons
N(Beta)            :       64.999952666926 electrons
N(Total)           :      131.999906430023 electrons
E(XC)              :      -86.323362310096 Eh       

---------------
SCF CONVERGENCE
---------------

  Last Energy change         ...    2.9410e-08  Tolerance :   1.0000e-08
  Last MAX-Density change    ...    1.9124e-04  Tolerance :   1.0000e-07
  Last RMS-Density change    ...    9.2512e-07  Tolerance :   5.0000e-09
  Last DIIS Error            ...    2.2127e-03  Tolerance :   5.0000e-07
  Last Orbital Gradient      ...    2.0030e-06  Tolerance :   1.0000e-05
  Last Orbital Rotation      ...    1.1775e-05  Tolerance :   1.0000e-05


----------------------
UHF SPIN CONTAMINATION
----------------------

Warning: in a DFT calculation there is little theoretical justification to 
         calculate <S**2> as in Hartree-Fock theory. We will do it anyways
         but you should keep in mind that the values have only limited relevance

Expectation value of <S**2>     :     2.012069
Ideal value S*(S+1) for S=1.0   :     2.000000
Deviation                       :     0.012069

----------------
ORBITAL ENERGIES
----------------
                 SPIN UP ORBITALS
  NO   OCC          E(Eh)            E(eV) 
   0   1.0000     -19.338067      -526.2156 
   1   1.0000     -19.337295      -526.1946 
   2   1.0000     -19.323534      -525.8201 
   3   1.0000     -19.323209      -525.8113 
   4   1.0000     -14.569410      -396.4538 
   5   1.0000     -14.563657      -396.2972 
   6   1.0000     -14.560111      -396.2008 
   7   1.0000     -14.554919      -396.0595 
   8   1.0000     -10.517645      -286.1997 
   9   1.0000     -10.509644      -285.9820 
  10   1.0000     -10.485397      -285.3222 
  11   1.0000     -10.471136      -284.9341 
  12   1.0000     -10.444269      -284.2030 
  13   1.0000     -10.442683      -284.1599 
  14   1.0000     -10.416834      -283.4565 
  15   1.0000     -10.409466      -283.2560 
  16   1.0000     -10.382713      -282.5280 
  17   1.0000     -10.366302      -282.0814 
  18   1.0000      -1.227012       -33.3887 
  19   1.0000      -1.222898       -33.2768 
  20   1.0000      -1.201708       -32.7001 
  21   1.0000      -1.196762       -32.5655 
  22   1.0000      -1.123629       -30.5755 
  23   1.0000      -1.102775       -30.0080 
  24   1.0000      -1.065308       -28.9885 
  25   1.0000      -1.056648       -28.7529 
  26   1.0000      -0.987121       -26.8609 
  27   1.0000      -0.961218       -26.1561 
  28   1.0000      -0.883200       -24.0331 
  29   1.0000      -0.848503       -23.0889 
  30   1.0000      -0.830036       -22.5864 
  31   1.0000      -0.801890       -21.8205 
  32   1.0000      -0.796197       -21.6656 
  33   1.0000      -0.791175       -21.5290 
  34   1.0000      -0.710384       -19.3305 
  35   1.0000      -0.705051       -19.1854 
  36   1.0000      -0.688397       -18.7322 
  37   1.0000      -0.666171       -18.1274 
  38   1.0000      -0.659182       -17.9372 
  39   1.0000      -0.643450       -17.5092 
  40   1.0000      -0.627648       -17.0792 
  41   1.0000      -0.604478       -16.4487 
  42   1.0000      -0.595525       -16.2051 
  43   1.0000      -0.586853       -15.9691 
  44   1.0000      -0.585756       -15.9392 
  45   1.0000      -0.569277       -15.4908 
  46   1.0000      -0.566735       -15.4216 
  47   1.0000      -0.565468       -15.3872 
  48   1.0000      -0.562793       -15.3144 
  49   1.0000      -0.557617       -15.1735 
  50   1.0000      -0.549342       -14.9484 
  51   1.0000      -0.542480       -14.7616 
  52   1.0000      -0.534363       -14.5407 
  53   1.0000      -0.528972       -14.3941 
  54   1.0000      -0.519833       -14.1454 
  55   1.0000      -0.505194       -13.7470 
  56   1.0000      -0.496691       -13.5156 
  57   1.0000      -0.425707       -11.5841 
  58   1.0000      -0.422386       -11.4937 
  59   1.0000      -0.415359       -11.3025 
  60   1.0000      -0.409232       -11.1358 
  61   1.0000      -0.402025       -10.9397 
  62   1.0000      -0.396482       -10.7888 
  63   1.0000      -0.392474       -10.6798 
  64   1.0000      -0.381042       -10.3687 
  65   1.0000      -0.342593        -9.3224 
  66   1.0000      -0.315953        -8.5975 
  67   0.0000       0.007024         0.1911 
  68   0.0000       0.028569         0.7774 
  69   0.0000       0.034157         0.9295 
  70   0.0000       0.037600         1.0232 
  71   0.0000       0.051786         1.4092 
  72   0.0000       0.056714         1.5433 
  73   0.0000       0.060541         1.6474 
  74   0.0000       0.062700         1.7062 
  75   0.0000       0.063448         1.7265 
  76   0.0000       0.067000         1.8232 
  77   0.0000       0.071799         1.9538 

                 SPIN DOWN ORBITALS
  NO   OCC          E(Eh)            E(eV) 
   0   1.0000     -19.337152      -526.1906 
   1   1.0000     -19.333870      -526.1014 
   2   1.0000     -19.323142      -525.8094 
   3   1.0000     -19.319799      -525.7185 
   4   1.0000     -14.568669      -396.4336 
   5   1.0000     -14.563265      -396.2866 
   6   1.0000     -14.559437      -396.1824 
   7   1.0000     -14.554649      -396.0521 
   8   1.0000     -10.517698      -286.2011 
   9   1.0000     -10.509709      -285.9837 
  10   1.0000     -10.486158      -285.3429 
  11   1.0000     -10.472125      -284.9610 
  12   1.0000     -10.443348      -284.1780 
  13   1.0000     -10.441985      -284.1408 
  14   1.0000     -10.405933      -283.1598 
  15   1.0000     -10.398145      -282.9479 
  16   1.0000     -10.383182      -282.5407 
  17   1.0000     -10.366663      -282.0913 
  18   1.0000      -1.224909       -33.3315 
  19   1.0000      -1.220478       -33.2109 
  20   1.0000      -1.197534       -32.5866 
  21   1.0000      -1.193390       -32.4738 
  22   1.0000      -1.120939       -30.5023 
  23   1.0000      -1.100194       -29.9378 
  24   1.0000      -1.062787       -28.9199 
  25   1.0000      -1.054841       -28.7037 
  26   1.0000      -0.973057       -26.4782 
  27   1.0000      -0.944631       -25.7047 
  28   1.0000      -0.878160       -23.8960 
  29   1.0000      -0.842862       -22.9354 
  30   1.0000      -0.822039       -22.3688 
  31   1.0000      -0.797432       -21.6992 
  32   1.0000      -0.793537       -21.5932 
  33   1.0000      -0.789345       -21.4792 
  34   1.0000      -0.704438       -19.1687 
  35   1.0000      -0.698689       -19.0123 
  36   1.0000      -0.682211       -18.5639 
  37   1.0000      -0.659098       -17.9350 
  38   1.0000      -0.649154       -17.6644 
  39   1.0000      -0.639865       -17.4116 
  40   1.0000      -0.618195       -16.8219 
  41   1.0000      -0.599468       -16.3124 
  42   1.0000      -0.590563       -16.0700 
  43   1.0000      -0.578527       -15.7425 
  44   1.0000      -0.577385       -15.7114 
  45   1.0000      -0.564063       -15.3489 
  46   1.0000      -0.560396       -15.2492 
  47   1.0000      -0.558614       -15.2007 
  48   1.0000      -0.557230       -15.1630 
  49   1.0000      -0.549552       -14.9541 
  50   1.0000      -0.542752       -14.7690 
  51   1.0000      -0.536293       -14.5933 
  52   1.0000      -0.527402       -14.3513 
  53   1.0000      -0.519022       -14.1233 
  54   1.0000      -0.508570       -13.8389 
  55   1.0000      -0.500015       -13.6061 
  56   1.0000      -0.492256       -13.3950 
  57   1.0000      -0.421117       -11.4592 
  58   1.0000      -0.418993       -11.4014 
  59   1.0000      -0.407792       -11.0966 
  60   1.0000      -0.399393       -10.8680 
  61   1.0000      -0.393274       -10.7015 
  62   1.0000      -0.389610       -10.6018 
  63   1.0000      -0.386213       -10.5094 
  64   1.0000      -0.366183        -9.9644 
  65   0.0000      -0.062282        -1.6948 
  66   0.0000      -0.046392        -1.2624 
  67   0.0000       0.006568         0.1787 
  68   0.0000       0.029069         0.7910 
  69   0.0000       0.033687         0.9167 
  70   0.0000       0.037466         1.0195 
  71   0.0000       0.056085         1.5262 
  72   0.0000       0.058082         1.5805 
  73   0.0000       0.061319         1.6686 
  74   0.0000       0.062594         1.7033 
  75   0.0000       0.067180         1.8281 
*Only the first 10 virtual orbitals were printed.

                    ********************************
                    * MULLIKEN POPULATION ANALYSIS *
                    ********************************

--------------------------------------------
MULLIKEN ATOMIC CHARGES AND SPIN POPULATIONS
--------------------------------------------
   0 O :   -0.685311    0.159274
   1 O :   -0.662767    0.135419
   2 O :   -0.653008    0.002943
   3 O :   -0.622648    0.005289
   4 N :   -0.330985    0.032092
   5 N :   -0.157163    0.026481
   6 N :    0.082538    0.037652
   7 N :   -0.065089    0.028341
   8 C :   -0.414147    0.473432
   9 C :   -0.036399    0.470389
  10 C :    0.540508    0.132416
  11 C :    0.447921    0.127928
  12 C :   -1.385878   -0.007587
  13 C :   -1.253336    0.016767
  14 C :    0.814990    0.113368
  15 C :    0.502967    0.147232
  16 C :    0.333413   -0.017952
  17 C :    0.383491   -0.001777
  18 H :    0.499606    0.012511
  19 H :    0.529912    0.021765
  20 H :    0.316320    0.026733
  21 H :    0.292285    0.018068
  22 H :    0.342154    0.003311
  23 H :    0.260197    0.000567
  24 H :    0.424368    0.019689
  25 H :    0.243228    0.017269
  26 H :    0.168567   -0.000520
  27 H :   -0.006725    0.001561
  28 H :   -0.006386    0.000480
  29 H :    0.097378   -0.003142
Sum of atomic charges         :   -0.0000000
Sum of atomic spin populations:    2.0000000

-----------------------------------------------------
MULLIKEN REDUCED ORBITAL CHARGES AND SPIN POPULATIONS
-----------------------------------------------------
CHARGE
  0 O s       :     4.103318  s :     4.103318
      pz      :     1.680311  p :     4.553371
      px      :     1.337229
      py      :     1.535831
      dz2     :     0.003614  d :     0.026728
      dxz     :     0.002233
      dyz     :     0.004940
      dx2y2   :     0.010520
      dxy     :     0.005421
      f0      :     0.000174  f :     0.001894
      f+1     :     0.000266
      f-1     :     0.000164
      f+2     :     0.000190
      f-2     :     0.000351
      f+3     :     0.000417
      f-3     :     0.000332

  1 O s       :     4.088808  s :     4.088808
      pz      :     1.315805  p :     4.542057
[...]
[1739905062.913202] [ohm:375610:0]        ib_iface.c:1059 UCX  ERROR ibv_create_cq(cqe=256) failed: Connection timed out
[1739905062.915787] [ohm:375531:0]        ib_iface.c:1059 UCX  ERROR ibv_create_cq(cqe=256) failed: Connection timed out
[1739905062.918109] [ohm:375493:0]        ib_iface.c:1059 UCX  ERROR ibv_create_cq(cqe=256) failed: Connection timed out
[1739905062.918473] [ohm:375501:0]        ib_iface.c:1059 UCX  ERROR ibv_create_cq(cqe=256) failed: Connection timed out
[1739905062.919500] [ohm:375513:0]        ib_iface.c:1059 UCX  ERROR ibv_create_cq(cqe=256) failed: Connection timed out
[1739905062.921176] [ohm:375568:0]        ib_iface.c:1059 UCX  ERROR ibv_create_cq(cqe=256) failed: Connection timed out
[1739905062.921114] [ohm:375600:0]        ib_iface.c:1059 UCX  ERROR ibv_create_cq(cqe=256) failed: Connection timed out
[1739905062.922100] [ohm:375548:0]        ib_iface.c:1059 UCX  ERROR ibv_create_cq(cqe=256) failed: Connection timed out
[1739905062.923855] [ohm:375618:0]        ib_iface.c:1059 UCX  ERROR ibv_create_cq(cqe=256) failed: Connection timed out
[1739905062.923948] [ohm:375586:0]        ib_iface.c:1059 UCX  ERROR ibv_create_cq(cqe=256) failed: Connection timed out
[1739905062.924802] [ohm:375508:0]        ib_iface.c:1059 UCX  ERROR ibv_create_cq(cqe=256) failed: Connection timed out


           ************************************************************
           *        Program running with 64 parallel MPI-processes    *
           *              working on a common directory               *
           ************************************************************

------------------------------------------------------------------------------
                              ORCA PROPERTY CALCULATIONS
------------------------------------------------------------------------------

GBWName                                 ... orca.gbw
Number of atoms                         ...     30
Number of basis functions               ...    882
Max core memory                         ...   1024 MB

Electric properties:
Dipole moment                           ... YES
Quadrupole moment                       ...  NO
Static polarizability (Dipole/Dipole)   ...  NO
Static polarizability (Dipole/Quad.)    ...  NO
Static polarizability (Quad./Quad.)     ...  NO
Static polarizability (Velocity)        ...  NO

Atomic electric properties:
Dipole moment                           ...  NO
Quadrupole moment                       ...  NO
Static polarizability                   ...  NO

Choice of electric origin               ... Center of mass
Position of electric origin             ...     0.000189    -0.015354     0.030263

General magnetic properties:
Magnetizability                         ...  NO

EPR properties:
g-Tensor (aka g-matrix)                 ...  NO
Zero-Field splitting spin-orbit         ...  NO
Zero-field splitting spin-spin          ...  NO
Hyperfine couplings                     ...  NO (   0 nuclei)
Quadrupole couplings                    ...  NO (   0 nuclei)
Contact density                         ...  NO (   0 nuclei)

NMR properties:
Chemical shifts                         ...  NO (   0 nuclei)
Spin-rotation constants                 ...  NO (   0 nuclei)
Spin-spin couplings                     ...  NO (   0 nuclei,    0 pairs)

Choice of magnetic origin               ... GIAO
Position of magnetic origin             ...     0.000000     0.000000     0.000000

Properties with geometric perturbations:
SCF Hessian                             ...  NO
IR spectrum                             ...  NO
VCD spectrum                            ...  NO
X-ray spectroscopy properties:
SCF XES/XAS/RIXS spectra                ...  NO


-------------
DIPOLE MOMENT
-------------

Method             : SCF
Type of density    : Electron Density
Multiplicity       :   3
Irrep              :   0
Energy             :  -908.7317606248187758 Eh
Relativity type    : 
Basis              : AO
                                X                 Y                 Z
Electronic contribution:     -3.800268510      -9.198896984      -6.281583039
Nuclear contribution   :      3.762739521      10.971365465       8.653100677
                        -----------------------------------------
Total Dipole Moment    :     -0.037528989       1.772468480       2.371517638
                        -----------------------------------------
Magnitude (a.u.)       :      2.960937157
Magnitude (Debye)      :      7.526104143



--------------------
Rotational spectrum 
--------------------
 
Rotational constants in cm-1:             0.021471             0.013635             0.013000 
Rotational constants in MHz :           643.675951           408.778670           389.739666 

Dipole components along the rotational axes: 
x,y,z [a.u.] :     0.864935    -2.185618     1.800586 
x,y,z [Debye]:     2.198491    -5.555399     4.576726 

 

-------------
DIPOLE MOMENT
-------------

Method             : TDA/CIS
Type of density    : Electron Density
Level              : Relaxed density
State              :   1
Multiplicity       :   3
Irrep              :   0
Energy             :     0.0000000000000000 Eh
Relativity type    : 
Basis              : AO
                                X                 Y                 Z
Electronic contribution:     -3.927809444      -9.185801869      -6.185885544
Nuclear contribution   :      3.762739521      10.971365465       8.653100677
                        -----------------------------------------
Total Dipole Moment    :     -0.165069923       1.785563596       2.467215133
                        -----------------------------------------
Magnitude (a.u.)       :      3.050022286
Magnitude (Debye)      :      7.752540546



--------------------
Rotational spectrum 
--------------------
 
Rotational constants in cm-1:             0.021471             0.013635             0.013000 
Rotational constants in MHz :           643.675951           408.778670           389.739666 

Dipole components along the rotational axes: 
x,y,z [a.u.] :     0.763918    -2.261177     1.898985 
x,y,z [Debye]:     1.941724    -5.747456     4.826836 

 

Dipole moment calculation done in   0.2 sec 

Maximum memory used throughout the entire PROP-calculation: 82.2 MB
[1739905065.375752] [ohm:375831:0]        ib_iface.c:1059 UCX  ERROR ibv_create_cq(cqe=256) failed: Connection timed out
[1739905065.381577] [ohm:375823:0]        ib_iface.c:1059 UCX  ERROR ibv_create_cq(cqe=256) failed: Connection timed out
[1739905065.388814] [ohm:375827:0]        ib_iface.c:1059 UCX  ERROR ibv_create_cq(cqe=256) failed: Connection timed out
[1739905065.391292] [ohm:375820:0]        ib_iface.c:1059 UCX  ERROR ibv_create_cq(cqe=256) failed: Connection timed out
[1739905065.393787] [ohm:375825:0]        ib_iface.c:1059 UCX  ERROR ibv_create_cq(cqe=256) failed: Connection timed out
[1739905065.394030] [ohm:375822:0]        ib_iface.c:1059 UCX  ERROR ibv_create_cq(cqe=256) failed: Connection timed out
[1739905065.399925] [ohm:375830:0]        ib_iface.c:1059 UCX  ERROR ibv_create_cq(cqe=256) failed: Connection timed out
[1739905065.404819] [ohm:375829:0]        ib_iface.c:1059 UCX  ERROR ibv_create_cq(cqe=256) failed: Connection timed out
[1739905065.405478] [ohm:375821:0]        ib_iface.c:1059 UCX  ERROR ibv_create_cq(cqe=256) failed: Connection timed out
[1739905065.439499] [ohm:375970:0]        ib_iface.c:1059 UCX  ERROR ibv_create_cq(cqe=256) failed: Connection timed out
[1739905065.446627] [ohm:375864:0]        ib_iface.c:1059 UCX  ERROR ibv_create_cq(cqe=256) failed: Connection timed out
[1739905065.446895] [ohm:375824:0]        ib_iface.c:1059 UCX  ERROR ibv_create_cq(cqe=256) failed: Connection timed out
[1739905065.448222] [ohm:375833:0]        ib_iface.c:1059 UCX  ERROR ibv_create_cq(cqe=256) failed: Connection timed out
[1739905065.453288] [ohm:375952:0]        ib_iface.c:1059 UCX  ERROR ibv_create_cq(cqe=256) failed: Connection timed out
[1739905065.453726] [ohm:375826:0]        ib_iface.c:1059 UCX  ERROR ibv_create_cq(cqe=256) failed: Connection timed out
[1739905065.456576] [ohm:375832:0]        ib_iface.c:1059 UCX  ERROR ibv_create_cq(cqe=256) failed: Connection timed out
[1739905065.461260] [ohm:375841:0]        ib_iface.c:1059 UCX  ERROR ibv_create_cq(cqe=256) failed: Connection timed out
[1739905065.466555] [ohm:375836:0]        ib_iface.c:1059 UCX  ERROR ibv_create_cq(cqe=256) failed: Connection timed out
[1739905065.469394] [ohm:375868:0]        ib_iface.c:1059 UCX  ERROR ibv_create_cq(cqe=256) failed: Connection timed out
[1739905065.477776] [ohm:375875:0]        ib_iface.c:1059 UCX  ERROR ibv_create_cq(cqe=256) failed: Connection timed out
[1739905065.506012] [ohm:375873:0]        ib_iface.c:1059 UCX  ERROR ibv_create_cq(cqe=256) failed: Connection timed out
[1739905065.506593] [ohm:375947:0]        ib_iface.c:1059 UCX  ERROR ibv_create_cq(cqe=256) failed: Connection timed out
[1739905065.520940] [ohm:375902:0]        ib_iface.c:1059 UCX  ERROR ibv_create_cq(cqe=256) failed: Connection timed out
[1739905065.525404] [ohm:375862:0]        ib_iface.c:1059 UCX  ERROR ibv_create_cq(cqe=256) failed: Connection timed out
[1739905065.526260] [ohm:375933:0]        ib_iface.c:1059 UCX  ERROR ibv_create_cq(cqe=256) failed: Connection timed out
[1739905065.532459] [ohm:375845:0]        ib_iface.c:1059 UCX  ERROR ibv_create_cq(cqe=256) failed: Connection timed out
[1739905065.535167] [ohm:375834:0]        ib_iface.c:1059 UCX  ERROR ibv_create_cq(cqe=256) failed: Connection timed out
[1739905065.546814] [ohm:375939:0]        ib_iface.c:1059 UCX  ERROR ibv_create_cq(cqe=256) failed: Connection timed out
[1739905065.553623] [ohm:375974:0]        ib_iface.c:1059 UCX  ERROR ibv_create_cq(cqe=256) failed: Connection timed out
[1739905065.564325] [ohm:375870:0]        ib_iface.c:1059 UCX  ERROR ibv_create_cq(cqe=256) failed: Connection timed out
[1739905065.564668] [ohm:375966:0]        ib_iface.c:1059 UCX  ERROR ibv_create_cq(cqe=256) failed: Connection timed out
[1739905065.565982] [ohm:375885:0]        ib_iface.c:1059 UCX  ERROR ibv_create_cq(cqe=256) failed: Connection timed out
[1739905065.573518] [ohm:375906:0]        ib_iface.c:1059 UCX  ERROR ibv_create_cq(cqe=256) failed: Connection timed out
[1739905065.581610] [ohm:375924:0]        ib_iface.c:1059 UCX  ERROR ibv_create_cq(cqe=256) failed: Connection timed out
[1739905065.582187] [ohm:375917:0]        ib_iface.c:1059 UCX  ERROR ibv_create_cq(cqe=256) failed: Connection timed out
[1739905065.589922] [ohm:375918:0]        ib_iface.c:1059 UCX  ERROR ibv_create_cq(cqe=256) failed: Connection timed out
[1739905065.616191] [ohm:375931:0]        ib_iface.c:1059 UCX  ERROR ibv_create_cq(cqe=256) failed: Connection timed out
[1739905065.625455] [ohm:375926:0]        ib_iface.c:1059 UCX  ERROR ibv_create_cq(cqe=256) failed: Connection timed out
[1739905065.627258] [ohm:375854:0]        ib_iface.c:1059 UCX  ERROR ibv_create_cq(cqe=256) failed: Connection timed out
[1739905065.630015] [ohm:375855:0]        ib_iface.c:1059 UCX  ERROR ibv_create_cq(cqe=256) failed: Connection timed out
[1739905065.630412] [ohm:375861:0]        ib_iface.c:1059 UCX  ERROR ibv_create_cq(cqe=256) failed: Connection timed out
[1739905065.633448] [ohm:375844:0]        ib_iface.c:1059 UCX  ERROR ibv_create_cq(cqe=256) failed: Connection timed out
[1739905065.635524] [ohm:375838:0]        ib_iface.c:1059 UCX  ERROR ibv_create_cq(cqe=256) failed: Connection timed out
[1739905065.639635] [ohm:375956:0]        ib_iface.c:1059 UCX  ERROR ibv_create_cq(cqe=256) failed: Connection timed out
[1739905065.642881] [ohm:375848:0]        ib_iface.c:1059 UCX  ERROR ibv_create_cq(cqe=256) failed: Connection timed out
[1739905065.643725] [ohm:375880:0]        ib_iface.c:1059 UCX  ERROR ibv_create_cq(cqe=256) failed: Connection timed out
[1739905065.645136] [ohm:375942:0]        ib_iface.c:1059 UCX  ERROR ibv_create_cq(cqe=256) failed: Connection timed out
[1739905065.646830] [ohm:375842:0]        ib_iface.c:1059 UCX  ERROR ibv_create_cq(cqe=256) failed: Connection timed out
[1739905065.653659] [ohm:375839:0]        ib_iface.c:1059 UCX  ERROR ibv_create_cq(cqe=256) failed: Connection timed out
[1739905065.660973] [ohm:375835:0]        ib_iface.c:1059 UCX  ERROR ibv_create_cq(cqe=256) failed: Connection timed out
[1739905065.661425] [ohm:375837:0]        ib_iface.c:1059 UCX  ERROR ibv_create_cq(cqe=256) failed: Connection timed out
[1739905065.663961] [ohm:375865:0]        ib_iface.c:1059 UCX  ERROR ibv_create_cq(cqe=256) failed: Connection timed out
[1739905065.670327] [ohm:375847:0]        ib_iface.c:1059 UCX  ERROR ibv_create_cq(cqe=256) failed: Connection timed out
[1739905065.675008] [ohm:375904:0]        ib_iface.c:1059 UCX  ERROR ibv_create_cq(cqe=256) failed: Connection timed out
[1739905065.678940] [ohm:375891:0]        ib_iface.c:1059 UCX  ERROR ibv_create_cq(cqe=256) failed: Connection timed out
[1739905065.685471] [ohm:375898:0]        ib_iface.c:1059 UCX  ERROR ibv_create_cq(cqe=256) failed: Connection timed out
[1739905065.689252] [ohm:375828:0]        ib_iface.c:1059 UCX  ERROR ibv_create_cq(cqe=256) failed: Connection timed out
[1739905065.689260] [ohm:375896:0]        ib_iface.c:1059 UCX  ERROR ibv_create_cq(cqe=256) failed: Connection timed out
[1739905065.689230] [ohm:375923:0]        ib_iface.c:1059 UCX  ERROR ibv_create_cq(cqe=256) failed: Connection timed out
[1739905065.691061] [ohm:375866:0]        ib_iface.c:1059 UCX  ERROR ibv_create_cq(cqe=256) failed: Connection timed out
[1739905065.693129] [ohm:375949:0]        ib_iface.c:1059 UCX  ERROR ibv_create_cq(cqe=256) failed: Connection timed out
[1739905065.693641] [ohm:375961:0]        ib_iface.c:1059 UCX  ERROR ibv_create_cq(cqe=256) failed: Connection timed out
[1739905065.694410] [ohm:375910:0]        ib_iface.c:1059 UCX  ERROR ibv_create_cq(cqe=256) failed: Connection timed out
[1739905065.695055] [ohm:375913:0]        ib_iface.c:1059 UCX  ERROR ibv_create_cq(cqe=256) failed: Connection timed out

--------------------------------
SUGGESTED CITATIONS FOR THIS RUN
--------------------------------

Below you find a list of papers that are relevant to this ORCA run
We neither can nor want to force you to cite these papers, but we appreciate if you do
You receive ORCA, which is the product of decades of hard work by many enthusiastic individuals, for free
The only thing we kindly ask in return is that you cite our papers,
We deeply appreciate it, if you show your appreciation for ORCA by not just citing the generic ORCA reference.

Please note that relegating all ORCA citations to the supporting information does *not* help us.
SI sections are not indexed - citations you put there will not count into any citation statistics
But we need these citations in order to attract the funding resources that allow us to do what we are doing

Therefore, if you are a happy ORCA user, please consider citing a few of the papers listed below in the main body of your paper

In addition to the list printed below, the program has created the file orca.bibtex that contains the list in bibtex format
You can import this file easily into all common literature databanks and citation aid programs


List of essential papers. We consider these as the minimum necessary citations

  1. Neese,F.
     Software update: the ORCA program system, version 5.0
     WIRES Comput. Molec. Sci., 2022 12(1)e1606
     doi.org/10.1002/wcms.1606

List of papers to cite with high priority. The work reported in these papers was absolutely
necessary for this run to complete.
Our perspective: the developers of density functionals and basis sets usually get cited in chemistry papers
Good! But without the algorithms to do something with them, the functionals or basis sets would not do anything.
Hence, in our opinion, the algorithm design and method developments papers are equally worthy of getting cited

  1. Neese,F.; Olbrich,G.
     Efficient use of the resolution of the identity approximation in time-dependent density functional calculations with hybrid density functionals
     Chem. Phys. Lett., 2002 362 170-178
     doi.org/10.1016/s0009-2614(02)01053-9
  2. Neese,F.
     An improvement of the resolution of the identity approximation for the formation of the Coulomb matrix
     J. Comp. Chem., 2003 24(14)1740-1747
     doi.org/10.1002/jcc.10318
  3. Neese,F.; Wennmohs,F.; Hansen,A.; Becker,U.
     Efficient, approximate and parallel Hartree-Fock and hybrid DFT calculations. A 'chain-of-spheres' algorithm for the Hartree-Fock exchange
     Chem. Phys., 2009 356(1-3)98-109
     doi.org/10.1016/j.chemphys.2008.10.036
  4. Petrenko,T.; Kossmann,S.; Neese,F.
     Efficient time-dependent density functional theory approximations for hybrid density functionals: Analytical gradients and parallelization
     J. Chem. Phys., 2011 134 054116
     doi.org/10.1063/1.3533441
  5. Helmich-Paris,B.; de Souza,B.; Neese,F.; Izsák,R.
     An improved chain of spheres for exchange algorithm
     J. Chem. Phys., 2021 155 104109
     doi.org/doi: 10.1063/5.0058766.
  6. Neese,F.
     The SHARK Integral Generation and Digestion System
     J. Comp. Chem., 2022  1-16
     doi.org/10.1002/jcc.26942
  7. Lehtola,S.; Steigemann,C.; Oliveira,M.; Marques,M.
     Recent developments in Libxc - A comprehensive library of functionals for density functional theory
     Software X, 2018 7 
     doi.org/10.1016/j.softx.2017.11.002
  8. Grimme,S.; Antony,J.; Ehrlich,S.; Krieg,H.
     A consistent and accurate ab initio parametrization of density functional dispersion correction (DFT-D) for the 94 elements H-Pu
     J. Chem. Phys., 2010 132 154104-XXXX
     doi.org/10.1063/1.3382344
  9. Grimme,S.; Ehrlich,S.; Goerigk,L.
     Effect of the damping function in dispersion corrected density functional theory
     J. Comput. Chem., 2011 32(7)1456-1465
     doi.org/10.1002/jcc.21759

List of suggested additional citations. These are papers that are important in the 'surrounding' of 
of this run, or papers that preceded the highly important papers. If you like your results we are grateful for a citation.

  1. Izsak,R.; Neese,F.
     An overlap fitted chain of spheres exchange method
     J. Chem. Phys., 2011 135 144105
     doi.org/10.1063/1.3646921
  2. Izsak,R.; Hansen,A.; Neese,F.
     The resolution of identity and chain of spheres approximations for the LPNO-CCSD singles Fock term
     Molec. Phys., 2012 110 2413-2417
     doi.org/10.1080/00268976.2012.687466
  3. Neese,F.
     The ORCA program system
     WIRES Comput. Molec. Sci., 2012 2(1)73-78
     doi.org/10.1002/wcms.81
  4. Izsak,R.; Neese,F.; Klopper,W.
     Robust fitting techniques in the chain of spheres approximation to the Fock exchange: The role of the complementary space
     J. Chem. Phys., 2013 139 
     doi.org/10.1063/1.4819264
  5. Neese,F.
     Software update: the ORCA program system, version 4.0
     WIRES Comput. Molec. Sci., 2018 8(1)1-6
     doi.org/10.1002/wcms.1327
  6. Neese,F.; Wennmohs,F.; Becker,U.; Riplinger,C.
     The ORCA quantum chemistry program package
     J. Chem. Phys., 2020 152 Art. No. L224108
     doi.org/10.1063/5.0004608

List of optional additional citations

  1. Neese,F.
     Approximate second-order SCF convergence for spin unrestricted wavefunctions
     Chem. Phys. Lett., 2000 325(1-3)93-98
     doi.org/10.1016/s0009-2614(00)00662-x

Timings for individual modules:

Sum of individual times          ...      278.828 sec (=   4.647 min)
Startup calculation              ...        6.622 sec (=   0.110 min)   2.4 %
SCF iterations                   ...      126.608 sec (=   2.110 min)  45.4 %
Property integrals               ...        4.320 sec (=   0.072 min)   1.5 %
Property calculations            ...        2.872 sec (=   0.048 min)   1.0 %
CIS module                       ...      138.406 sec (=   2.307 min)  49.6 %
                             ****ORCA TERMINATED NORMALLY****
TOTAL RUN TIME: 0 days 0 hours 4 minutes 40 seconds 821 msec
