
                                 *****************
                                 * O   R   C   A *
                                 *****************

                                            #,                                       
                                            ###                                      
                                            ####                                     
                                            #####                                    
                                            ######                                   
                                           ########,                                 
                                     ,,################,,,,,                         
                               ,,#################################,,                 
                          ,,##########################################,,             
                       ,#########################################, ''#####,          
                    ,#############################################,,   '####,        
                  ,##################################################,,,,####,       
                ,###########''''           ''''###############################       
              ,#####''   ,,,,##########,,,,          '''####'''          '####       
            ,##' ,,,,###########################,,,                        '##       
           ' ,,###''''                  '''############,,,                           
         ,,##''                                '''############,,,,        ,,,,,,###''
      ,#''                                            '''#######################'''  
     '                                                          ''''####''''         
             ,#######,   #######,   ,#######,      ##                                
            ,#'     '#,  ##    ##  ,#'     '#,    #''#        ,####,   ,####,        
            ##       ##  ##   ,#'  ##            #'  '#       #'       #'  '#        
            ##       ##  #######   ##           ,######,      #####,   #    #        
            '#,     ,#'  ##    ##  '#,     ,#' ,#      #,     #,   #   #,  ,#        
             '#######'   ##     ##  '#######'  #'      '#     '####' # '####'        



                #########################################################
                #                        -***-                          #
                #          Department of theory and spectroscopy        #
                #                                                       #
                #                      Frank Neese                      #
                #                                                       #
                #     Directorship, Architecture, Infrastructure        #
                #                    SHARK, DRIVERS                     #
                #        Core code/Algorithms in most modules           #
                #                                                       #
                #        Max Planck Institute fuer Kohlenforschung      #
                #                Kaiser Wilhelm Platz 1                 #
                #                 D-45470 Muelheim/Ruhr                 #
                #                      Germany                          #
                #                                                       #
                #                  All rights reserved                  #
                #                        -***-                          #
                #########################################################


                         Program Version 6.0.0  -   RELEASE  -


 With contributions from (in alphabetic order):
   Daniel Aravena         : Magnetic Suceptibility
   Michael Atanasov       : Ab Initio Ligand Field Theory (pilot matlab implementation)
   Alexander A. Auer      : GIAO ZORA, VPT2 properties, NMR spectrum
   Ute Becker             : All parallelization in ORCA, NUMFREQ, NUMCALC
   Giovanni Bistoni       : ED, misc. LED, open-shell LED, HFLD
   Martin Brehm           : Molecular dynamics
   Dmytro Bykov           : pre 5.0 version of the SCF Hessian
   Marcos Casanova-Páez   : Triplet and SCS-CIS(D). UHF-(DLPNO)-IP/EA/STEOM-CCSD. UHF-CVS-IP/STEOM-CCSD
   Vijay G. Chilkuri      : MRCI spin determinant printing, contributions to CSF-ICE
   Pauline Colinet        : FMM embedding
   Dipayan Datta          : RHF DLPNO-CCSD density
   Achintya Kumar Dutta   : EOM-CC, STEOM-CC
   Nicolas Foglia         : Exact transition moments, OPA infrastructure, MCD improvements
   Dmitry Ganyushin       : Spin-Orbit,Spin-Spin,Magnetic field MRCI
   Miquel Garcia          : C-PCM and meta-GGA Hessian, CCSD/C-PCM, Gaussian charge scheme
   Tiago L. C. Gouveia    : GS-ROHF, GS-ROCIS
   Yang Guo               : DLPNO-NEVPT2, F12-NEVPT2, CIM, IAO-localization
   Andreas Hansen         : Spin unrestricted coupled pair/coupled cluster methods
   Ingolf Harden          : AUTO-CI MPn and infrastructure 
   Benjamin Helmich-Paris : MC-RPA, TRAH-(SCF,CASSCF), AVAS, COSX integrals, SCF dyn. polar.
   Lee Huntington         : MR-EOM, pCC
   Robert Izsak           : Overlap fitted RIJCOSX, COSX-SCS-MP3, EOM
   Riya Kayal             : Wick's Theorem for AUTO-CI, AUTO-CI UHF-CCSDT
   Emily Kempfer          : AUTO-CI, RHF CISDT and CCSDT
   Christian Kollmar      : KDIIS, OOCD, Brueckner-CCSD(T), CCSD density, CASPT2, CASPT2-K, improved NEVPT2
   Axel Koslowski         : Symmetry handling
   Simone Kossmann        : Meta GGA functionals, TD-DFT gradient, OOMP2, (MP2 Hessian; deprecated post 5.0)
   Lucas Lang             : DCDCAS
   Marvin Lechner         : AUTO-CI (C++ implementation), FIC-MRCC
   Spencer Leger          : CASSCF response
   Dagmar Lenk            : GEPOL surface, SMD, ORCA-2-JSON
   Dimitrios Liakos       : Extrapolation schemes; Compound Job, initial MDCI parallelization
   Dimitrios Manganas     : Further ROCIS development; embedding schemes. LFT, Crystal Embedding
   Dimitrios Pantazis     : SARC Basis sets
   Anastasios Papadopoulos: AUTO-CI, single reference methods and gradients
   Taras Petrenko         : pre 6.0 DFT Hessian and TD-DFT gradient, (ASA, deprecated), ECA, 1-Electron XAS/XES, NRVS
   Peter Pinski           : DLPNO-MP2, DLPNO-MP2 Gradient
   Christoph Reimann      : Effective Core Potentials
   Marius Retegan         : Local ZFS, SOC
   Christoph Riplinger    : Optimizer, TS searches, QM/MM, DLPNO-CCSD(T), (RO)-DLPNO pert. Triples
   Michael Roemelt        : Original ROCIS implementation
   Masaaki Saitow         : Open-shell DLPNO-CCSD energy and density
   Barbara Sandhoefer     : DKH picture change effects
   Kantharuban Sivalingam : CASSCF convergence/infrastructure, NEVPT2 and variants, FIC-MRCI
   Bernardo de Souza      : ESD, SOC TD-DFT
   Georgi Stoychev        : AutoAux, RI-MP2 NMR, DLPNO-MP2 response, X2C
   Van Anh Tran           : RI-MP2 g-tensors
   Willem Van den Heuvel  : Paramagnetic NMR
   Zikuan Wang            : NOTCH, Electric field optimization 
   Frank Wennmohs         : Technical directorship and infrastructure
   Hang Xu                : AUTO-CI-Response properties 


 We gratefully acknowledge several colleagues who have allowed us to
 interface, adapt or use parts of their codes:
   Stefan Grimme, W. Hujo, H. Kruse, P. Pracht,  : VdW corrections, initial TS optimization,
                  C. Bannwarth, S. Ehlert,         DFT functionals, gCP, sTDA/sTD-DF
                  L. Wittmann, M. Mueller
   Ed Valeev, F. Pavosevic, A. Kumar             : LibInt (2-el integral package), F12 methods
   Garnet Chan, S. Sharma, J. Yang, R. Olivares  : DMRG
   Ulf Ekstrom                                   : XCFun DFT Library
   Mihaly Kallay                                 : mrcc  (arbitrary order and MRCC methods)
   Frank Weinhold                                : gennbo (NPA and NBO analysis)
   Simon Mueller                                 : openCOSMO-RS
   Christopher J. Cramer and Donald G. Truhlar   : smd solvation model
   Lars Goerigk                                  : TD-DFT with DH, B97 family of functionals
   V. Asgeirsson, H. Jonsson                     : NEB implementation
   FAccTs GmbH                                   : IRC, NEB, NEB-TS, DLPNO-Multilevel, CI-OPT
                                                   MM, QMMM, 2- and 3-layer-ONIOM, Crystal-QMMM,
                                                   LR-CPCM, SF, NACMEs, symmetry and pop. for TD-DFT,
                                                   nearIR, NL-DFT gradient (VV10), updates on ESD,
                                                   ML-optimized integration grids, MBIS, APM,
                                                   GOAT, DOCKER, SOLVATOR, interface openCOSMO-RS
   S Lehtola, MJT Oliveira, MAL Marques          : LibXC Library
   Liviu Ungur et al                             : ANISO software


 Your calculation uses the libint2 library for the computation of 2-el integrals
 For citations please refer to: http://libint.valeyev.net

 Your ORCA version has been built with support for libXC version: 6.2.2
 For citations please refer to: https://libxc.gitlab.io

 This ORCA versions uses:
   CBLAS   interface :  Fast vector & matrix operations
   LAPACKE interface :  Fast linear algebra routines
   SCALAPACK package :  Parallel linear algebra routines
   Shared memory     :  Shared parallel matrices
   BLAS/LAPACK       :  OpenBLAS 0.3.27  USE64BITINT DYNAMIC_ARCH NO_AFFINITY Zen SINGLE_THREADED
        Core in use  :  Zen
   Copyright (c) 2011-2014, The OpenBLAS Project


Your calculation utilizes the atom-pairwise dispersion correction
with the Becke-Johnson damping scheme (D3BJ)


Warning: RI is on but no J-basis has been assigned. Assigning Def2/J (nothing to worry about!)
================================================================================

----- Orbital basis set information -----
Your calculation utilizes the basis: def2-TZVPPD
   F. Weigend and R. Ahlrichs, Phys. Chem. Chem. Phys. 7, 3297 (2005).
   D. Rappoport and F. Furche, J. Chem. Phys. 133, 134105 (2010)
   D. Rappoport, J. Chem. Phys. 155, 124102 (2021).

----- AuxJ basis set information -----
Your calculation utilizes the auxiliary basis: def2/J
   F. Weigend, Phys. Chem. Chem. Phys. 8, 1057 (2006).

================================================================================
                                        WARNINGS
                       Please study these warnings very carefully!
================================================================================

Using LibXC functional ID 531 : wB97M-V exchange-correlation functional
[ 1]  N. Mardirossian and M. Head-Gordon.,  J. Chem. Phys. 144, 214110 (2016)
Using LibXC functional ID 531 : wB97M-V exchange-correlation functional
[ 1]  N. Mardirossian and M. Head-Gordon.,  J. Chem. Phys. 144, 214110 (2016)

WARNING: B97M-V or wB97M-V functional requested.
  ===> : libXC variant has now been activated.
         Any manually given DFX/HFX/RangeSep scaling parameters are IGNORED!

Your calculation utilizes LibXC
 by S Lehtola, C Steigemann, MJT Oliveira & MAL Marques
Please cite in your paper:
 S Lehtola, C Steigemann, MJT Oliveira & MAL Marques, SoftwareX, 7, (2018), 1.
   


WARNING: your system is open-shell and RHF/RKS was chosen
  ===> : WILL SWITCH to UHF/UKS

INFO   : Checking CIS options ...

WARNING: CIS/ROCIS methods need fully converged wavefunctions
  ===> : Setting SCFConvForced true
         You can overwrite this default with %scf ConvForced false 


================================================================================
                                       INPUT FILE
================================================================================
NAME = orca.inp
|  1> ! Engrad def2-TZVPPD wB97M-D3BJ 
|  2> %pal nprocs 8 end%pal nprocs 64 end 
|  3> %tddft 
|  4>  Iroot 2 Nroots 3 
|  5> sf true 
|  6> end 
|  7> *xyz 0 3 
|  8> O   1.21929177 0.88011602 0.34379
|  9> C   0.17166518 -0.0299983 0.544875
| 10> C   -0.22093898 -0.70231766 -0.70745289
| 11> H   -0.64842388 0.5123177 1.0898823
| 12> H   0.36666953 -0.88804355 1.10704031
| 13> H   -1.13730108 -0.62951601 -1.24248001
| 14> H   0.4172134 -1.30051619 -1.29889855
| 15> *
| 16> 
| 17>                          ****END OF INPUT****
================================================================================

                     *******************************
                     * Energy+Gradient Calculation *
                     *******************************

---------------------------------
CARTESIAN COORDINATES (ANGSTROEM)
---------------------------------
  O      1.219292    0.880116    0.343790
  C      0.171665   -0.029998    0.544875
  C     -0.220939   -0.702318   -0.707453
  H     -0.648424    0.512318    1.089882
  H      0.366670   -0.888044    1.107040
  H     -1.137301   -0.629516   -1.242480
  H      0.417213   -1.300516   -1.298899

----------------------------
CARTESIAN COORDINATES (A.U.)
----------------------------
  NO LB      ZA    FRAG     MASS         X           Y           Z
   0 O     8.0000    0    15.999    2.304128    1.663178    0.649669
   1 C     6.0000    0    12.011    0.324400   -0.056689    1.029665
   2 C     6.0000    0    12.011   -0.417514   -1.327188   -1.336892
   3 H     1.0000    0     1.008   -1.225344    0.968140    2.059579
   4 H     1.0000    0     1.008    0.692905   -1.678159    2.092003
   5 H     1.0000    0     1.008   -2.149188   -1.189613   -2.347947
   6 H     1.0000    0     1.008    0.788419   -2.457619   -2.454563

--------------------------------
INTERNAL COORDINATES (ANGSTROEM)
--------------------------------
 O      0   0   0     0.000000000000     0.00000000     0.00000000
 C      1   0   0     1.402235616710     0.00000000     0.00000000
 C      2   1   0     1.474610623979   111.90357241     0.00000000
 H      2   1   3     1.124137743891   107.54444374   231.56572048
 H      2   1   3     1.044173445043   118.10113934   112.10673020
 H      3   2   1     1.063613462539   128.70985825   246.05646307
 H      3   2   1     1.055882526670   124.96656709    60.19284081

---------------------------
INTERNAL COORDINATES (A.U.)
---------------------------
 O      0   0   0     0.000000000000     0.00000000     0.00000000
 C      1   0   0     2.649841290811     0.00000000     0.00000000
 C      2   1   0     2.786610233491   111.90357241     0.00000000
 H      2   1   3     2.124312472759   107.54444374   231.56572048
 H      2   1   3     1.973201847445   118.10113934   112.10673020
 H      3   2   1     2.009938156551   128.70985825   246.05646307
 H      3   2   1     1.995328804999   124.96656709    60.19284081

---------------------
BASIS SET INFORMATION
---------------------
There are 3 groups of distinct atoms

 Group   1 Type O   : 12s7p3d1f contracted to 6s4p3d1f pattern {621111/4111/111/1}
 Group   2 Type C   : 12s6p3d1f contracted to 6s3p3d1f pattern {621111/411/111/1}
 Group   3 Type H   : 5s3p1d contracted to 3s3p1d pattern {311/111/1}

Atom   0O    basis set group =>   1
Atom   1C    basis set group =>   2
Atom   2C    basis set group =>   2
Atom   3H    basis set group =>   3
Atom   4H    basis set group =>   3
Atom   5H    basis set group =>   3
Atom   6H    basis set group =>   3
---------------------------------
AUXILIARY/J BASIS SET INFORMATION
---------------------------------
There are 3 groups of distinct atoms

 Group   1 Type O   : 12s5p4d2f1g contracted to 6s4p3d1f1g pattern {711111/2111/211/2/1}
 Group   2 Type C   : 12s5p4d2f1g contracted to 6s4p3d1f1g pattern {711111/2111/211/2/1}
 Group   3 Type H   : 5s2p1d contracted to 3s1p1d pattern {311/2/1}

Atom   0O    basis set group =>   1
Atom   1C    basis set group =>   2
Atom   2C    basis set group =>   2
Atom   3H    basis set group =>   3
Atom   4H    basis set group =>   3
Atom   5H    basis set group =>   3
Atom   6H    basis set group =>   3
[1741611890.612568] [ohm:3545478:0]        ib_iface.c:1059 UCX  ERROR ibv_create_cq(cqe=256) failed: Connection timed out
[1741611890.622141] [ohm:3545476:0]        ib_iface.c:1059 UCX  ERROR ibv_create_cq(cqe=256) failed: Connection timed out
[1741611890.658878] [ohm:3545544:0]        ib_iface.c:1059 UCX  ERROR ibv_create_cq(cqe=256) failed: Connection timed out
[1741611890.668275] [ohm:3545479:0]        ib_iface.c:1059 UCX  ERROR ibv_create_cq(cqe=256) failed: Connection timed out
[1741611890.683989] [ohm:3545542:0]        ib_iface.c:1059 UCX  ERROR ibv_create_cq(cqe=256) failed: Connection timed out
[1741611890.691042] [ohm:3545536:0]        ib_iface.c:1059 UCX  ERROR ibv_create_cq(cqe=256) failed: Connection timed out
[1741611890.694594] [ohm:3545541:0]        ib_iface.c:1059 UCX  ERROR ibv_create_cq(cqe=256) failed: Connection timed out
[1741611890.696253] [ohm:3545524:0]        ib_iface.c:1059 UCX  ERROR ibv_create_cq(cqe=256) failed: Connection timed out
[1741611890.696783] [ohm:3545477:0]        ib_iface.c:1059 UCX  ERROR ibv_create_cq(cqe=256) failed: Connection timed out
[1741611890.698427] [ohm:3545485:0]        ib_iface.c:1059 UCX  ERROR ibv_create_cq(cqe=256) failed: Connection timed out
[1741611890.698705] [ohm:3545573:0]        ib_iface.c:1059 UCX  ERROR ibv_create_cq(cqe=256) failed: Connection timed out
[1741611890.700922] [ohm:3545506:0]        ib_iface.c:1059 UCX  ERROR ibv_create_cq(cqe=256) failed: Connection timed out
[1741611890.702728] [ohm:3545489:0]        ib_iface.c:1059 UCX  ERROR ibv_create_cq(cqe=256) failed: Connection timed out
[1741611890.703046] [ohm:3545481:0]        ib_iface.c:1059 UCX  ERROR ibv_create_cq(cqe=256) failed: Connection timed out
[1741611890.703616] [ohm:3545538:0]        ib_iface.c:1059 UCX  ERROR ibv_create_cq(cqe=256) failed: Connection timed out
[1741611890.706591] [ohm:3545492:0]        ib_iface.c:1059 UCX  ERROR ibv_create_cq(cqe=256) failed: Connection timed out
[1741611890.708102] [ohm:3545547:0]        ib_iface.c:1059 UCX  ERROR ibv_create_cq(cqe=256) failed: Connection timed out
[1741611890.709749] [ohm:3545552:0]        ib_iface.c:1059 UCX  ERROR ibv_create_cq(cqe=256) failed: Connection timed out
[1741611890.726016] [ohm:3545606:0]        ib_iface.c:1059 UCX  ERROR ibv_create_cq(cqe=256) failed: Connection timed out
[1741611890.741492] [ohm:3545546:0]        ib_iface.c:1059 UCX  ERROR ibv_create_cq(cqe=256) failed: Connection timed out
[1741611890.759899] [ohm:3545611:0]        ib_iface.c:1059 UCX  ERROR ibv_create_cq(cqe=256) failed: Connection timed out
[1741611890.767339] [ohm:3545626:0]        ib_iface.c:1059 UCX  ERROR ibv_create_cq(cqe=256) failed: Connection timed out
[1741611890.767420] [ohm:3545569:0]        ib_iface.c:1059 UCX  ERROR ibv_create_cq(cqe=256) failed: Connection timed out
[1741611890.768239] [ohm:3545598:0]        ib_iface.c:1059 UCX  ERROR ibv_create_cq(cqe=256) failed: Connection timed out
[1741611890.770289] [ohm:3545623:0]        ib_iface.c:1059 UCX  ERROR ibv_create_cq(cqe=256) failed: Connection timed out
[1741611890.779999] [ohm:3545566:0]        ib_iface.c:1059 UCX  ERROR ibv_create_cq(cqe=256) failed: Connection timed out
[1741611890.798759] [ohm:3545487:0]        ib_iface.c:1059 UCX  ERROR ibv_create_cq(cqe=256) failed: Connection timed out
[1741611890.799083] [ohm:3545484:0]        ib_iface.c:1059 UCX  ERROR ibv_create_cq(cqe=256) failed: Connection timed out
[1741611890.805191] [ohm:3545604:0]        ib_iface.c:1059 UCX  ERROR ibv_create_cq(cqe=256) failed: Connection timed out
[1741611890.805891] [ohm:3545585:0]        ib_iface.c:1059 UCX  ERROR ibv_create_cq(cqe=256) failed: Connection timed out
[1741611890.805911] [ohm:3545582:0]        ib_iface.c:1059 UCX  ERROR ibv_create_cq(cqe=256) failed: Connection timed out
[1741611890.808546] [ohm:3545539:0]        ib_iface.c:1059 UCX  ERROR ibv_create_cq(cqe=256) failed: Connection timed out
[1741611890.820979] [ohm:3545480:0]        ib_iface.c:1059 UCX  ERROR ibv_create_cq(cqe=256) failed: Connection timed out
[1741611890.840784] [ohm:3545618:0]        ib_iface.c:1059 UCX  ERROR ibv_create_cq(cqe=256) failed: Connection timed out
[1741611890.848572] [ohm:3545592:0]        ib_iface.c:1059 UCX  ERROR ibv_create_cq(cqe=256) failed: Connection timed out
[1741611890.852926] [ohm:3545550:0]        ib_iface.c:1059 UCX  ERROR ibv_create_cq(cqe=256) failed: Connection timed out
[1741611890.860317] [ohm:3545617:0]        ib_iface.c:1059 UCX  ERROR ibv_create_cq(cqe=256) failed: Connection timed out
[1741611890.864677] [ohm:3545483:0]        ib_iface.c:1059 UCX  ERROR ibv_create_cq(cqe=256) failed: Connection timed out
[1741611890.866774] [ohm:3545514:0]        ib_iface.c:1059 UCX  ERROR ibv_create_cq(cqe=256) failed: Connection timed out
[1741611890.869742] [ohm:3545509:0]        ib_iface.c:1059 UCX  ERROR ibv_create_cq(cqe=256) failed: Connection timed out
[1741611890.875116] [ohm:3545543:0]        ib_iface.c:1059 UCX  ERROR ibv_create_cq(cqe=256) failed: Connection timed out
[1741611890.875509] [ohm:3545554:0]        ib_iface.c:1059 UCX  ERROR ibv_create_cq(cqe=256) failed: Connection timed out
[1741611890.877548] [ohm:3545548:0]        ib_iface.c:1059 UCX  ERROR ibv_create_cq(cqe=256) failed: Connection timed out
[1741611890.879372] [ohm:3545540:0]        ib_iface.c:1059 UCX  ERROR ibv_create_cq(cqe=256) failed: Connection timed out
[1741611890.883574] [ohm:3545529:0]        ib_iface.c:1059 UCX  ERROR ibv_create_cq(cqe=256) failed: Connection timed out
[1741611890.887361] [ohm:3545613:0]        ib_iface.c:1059 UCX  ERROR ibv_create_cq(cqe=256) failed: Connection timed out
[1741611890.887466] [ohm:3545488:0]        ib_iface.c:1059 UCX  ERROR ibv_create_cq(cqe=256) failed: Connection timed out
[1741611890.896052] [ohm:3545486:0]        ib_iface.c:1059 UCX  ERROR ibv_create_cq(cqe=256) failed: Connection timed out
[1741611890.906429] [ohm:3545537:0]        ib_iface.c:1059 UCX  ERROR ibv_create_cq(cqe=256) failed: Connection timed out
[1741611890.912803] [ohm:3545558:0]        ib_iface.c:1059 UCX  ERROR ibv_create_cq(cqe=256) failed: Connection timed out
[1741611890.913324] [ohm:3545594:0]        ib_iface.c:1059 UCX  ERROR ibv_create_cq(cqe=256) failed: Connection timed out
[1741611890.920807] [ohm:3545490:0]        ib_iface.c:1059 UCX  ERROR ibv_create_cq(cqe=256) failed: Connection timed out
[1741611890.922577] [ohm:3545576:0]        ib_iface.c:1059 UCX  ERROR ibv_create_cq(cqe=256) failed: Connection timed out
[1741611890.924377] [ohm:3545491:0]        ib_iface.c:1059 UCX  ERROR ibv_create_cq(cqe=256) failed: Connection timed out
[1741611890.924634] [ohm:3545482:0]        ib_iface.c:1059 UCX  ERROR ibv_create_cq(cqe=256) failed: Connection timed out
[1741611890.927930] [ohm:3545515:0]        ib_iface.c:1059 UCX  ERROR ibv_create_cq(cqe=256) failed: Connection timed out
[1741611890.929280] [ohm:3545561:0]        ib_iface.c:1059 UCX  ERROR ibv_create_cq(cqe=256) failed: Connection timed out
[1741611890.932695] [ohm:3545549:0]        ib_iface.c:1059 UCX  ERROR ibv_create_cq(cqe=256) failed: Connection timed out
[1741611890.936489] [ohm:3545590:0]        ib_iface.c:1059 UCX  ERROR ibv_create_cq(cqe=256) failed: Connection timed out
[1741611890.936542] [ohm:3545565:0]        ib_iface.c:1059 UCX  ERROR ibv_create_cq(cqe=256) failed: Connection timed out
[1741611890.937114] [ohm:3545545:0]        ib_iface.c:1059 UCX  ERROR ibv_create_cq(cqe=256) failed: Connection timed out
[1741611890.938492] [ohm:3545533:0]        ib_iface.c:1059 UCX  ERROR ibv_create_cq(cqe=256) failed: Connection timed out
[1741611890.939115] [ohm:3545535:0]        ib_iface.c:1059 UCX  ERROR ibv_create_cq(cqe=256) failed: Connection timed out
[1741611890.939877] [ohm:3545532:0]        ib_iface.c:1059 UCX  ERROR ibv_create_cq(cqe=256) failed: Connection timed out


           ************************************************************
           *        Program running with 64 parallel MPI-processes    *
           *              working on a common directory               *
           ************************************************************
------------------------------------------------------------------------------
                             ORCA STARTUP CALCULATIONS
                           -- RI-GTO INTEGRALS CHOSEN --
------------------------------------------------------------------------------
------------------------------------------------------------------------------
                   ___                                                        
                  /   \      - P O W E R E D   B Y -                         
                 /     \                                                     
                 |  |  |   _    _      __       _____    __    __             
                 |  |  |  | |  | |    /  \     |  _  \  |  |  /  |          
                  \  \/   | |  | |   /    \    | | | |  |  | /  /          
                 / \  \   | |__| |  /  /\  \   | |_| |  |  |/  /          
                |  |  |   |  __  | /  /__\  \  |    /   |      \           
                |  |  |   | |  | | |   __   |  |    \   |  |\   \          
                \     /   | |  | | |  |  |  |  | |\  \  |  | \   \       
                 \___/    |_|  |_| |__|  |__|  |_| \__\ |__|  \__/        
                                                                              
                      - O R C A' S   B I G   F R I E N D -                    
                                      &                                       
                       - I N T E G R A L  F E E D E R -                       
                                                                              
 v1 FN, 2020, v2 2021, v3 2022-2024                                           
------------------------------------------------------------------------------


----------------------
SHARK INTEGRAL PACKAGE
----------------------

Number of atoms                             ...      7
Number of basis functions                   ...    182
Number of shells                            ...     68
Maximum angular momentum                    ...      3
Integral batch strategy                     ... SHARK/LIBINT Hybrid
RI-J (if used) integral strategy            ... SPLIT-RIJ (Revised 2003 algorithm where possible)
Printlevel                                  ...      1
Contraction scheme used                     ... SEGMENTED contraction
Prescreening option                         ... SCHWARTZ
   Thresh                                   ... 2.500e-11
   Tcut                                     ... 2.500e-12
   Tpresel                                  ... 2.500e-12 
Coulomb Range Separation                    ... NOT USED
Exchange Range Separation                   ... Long Range
   Mu parameter                             ... 3.000e-01
   Scaling (regular/separated)              ... 1.500e-01 8.500e-01
Multipole approximations                    ... NOT USED
Finite Nucleus Model                        ... NOT USED
CABS basis                                  ... NOT available
Auxiliary Coulomb fitting basis             ... AVAILABLE
   # of basis functions in Aux-J            ...    191
   # of shells in Aux-J                     ...     65
   Maximum angular momentum in Aux-J        ...      4
Auxiliary J/K fitting basis                 ... NOT available
Auxiliary Correlation fitting basis         ... NOT available
Auxiliary 'external' fitting basis          ... NOT available

Checking pre-screening integrals            ... done (  0.0 sec) Dimension = 68
Check shell pair data                       ... done (  0.0 sec)
Shell pair information
Shell pair cut-off parameter TPreSel        ...   2.5e-12
Total number of shell pairs                 ...      2346
Shell pairs after pre-screening             ...      2326
Total number of primitive shell pairs       ...      5434
Primitive shell pairs kept                  ...      4811
          la=0 lb=0:    454 shell pairs
          la=1 lb=0:    655 shell pairs
          la=1 lb=1:    253 shell pairs
          la=2 lb=0:    387 shell pairs
          la=2 lb=1:    285 shell pairs
          la=2 lb=2:     91 shell pairs
          la=3 lb=0:     90 shell pairs
          la=3 lb=1:     66 shell pairs
          la=3 lb=2:     39 shell pairs
          la=3 lb=3:      6 shell pairs

Calculating one electron integrals          ... done (  0.0 sec)
Calculating RI/J V-Matrix + Cholesky decomp.... done (  0.0 sec)
Calculating Nuclear repulsion               ... done (  0.0 sec) ENN=     67.705787975462 Eh

Diagonalization of the overlap matrix:
Smallest eigenvalue                        ... 1.437e-05
Time for diagonalization                   ...    0.005 sec
Threshold for overlap eigenvalues          ... 1.000e-07
Number of eigenvalues below threshold      ... 0
Time for construction of square roots      ...    0.004 sec
Total time needed                          ...    0.011 sec

-------------------
DFT GRID GENERATION
-------------------

General Integration Accuracy     IntAcc      ... 4.388
Radial Grid Type                 RadialGrid  ... OptM3 with GC (2021)
Angular Grid (max. ang.)         AngularGrid ... 4 (Lebedev-302)
Angular grid pruning method      GridPruning ... 4 (adaptive)
Weight generation scheme         WeightScheme... mBecke (2022)
Basis function cutoff            BFCut       ... 1.0000e-11
Integration weight cutoff        WCut        ... 1.0000e-14
Partially contracted basis set               ... off
Rotationally invariant grid construction     ... off
Angular grids for H and He will be reduced by one unit
Diffuse basis detected: some atoms will have their outermost
                        angular grid increased by 1.

Total number of grid points                  ...    33141
Total number of batches                      ...      522
Average number of points per batch           ...       63
Average number of grid points per atom       ...     4734

--------------------
COSX GRID GENERATION
--------------------

GRIDX 1
-------
General Integration Accuracy     IntAcc      ... 3.816
Radial Grid Type                 RadialGrid  ... OptM3 with GC (2021)
Angular Grid (max. ang.)         AngularGrid ... 1 (Lebedev-50)
Angular grid pruning method      GridPruning ... 4 (adaptive)
Weight generation scheme         WeightScheme... mBecke (2022)
Basis function cutoff            BFCut       ... 1.0000e-11
Integration weight cutoff        WCut        ... 1.0000e-14
Partially contracted basis set               ... on
Rotationally invariant grid construction     ... off
Angular grids for H and He will be reduced by one unit
Diffuse basis detected: some atoms will have their outermost
                        angular grid increased by 1.

Total number of grid points                  ...     4174
Total number of batches                      ...       36
Average number of points per batch           ...      115
Average number of grid points per atom       ...      596
UseSFitting                                  ... on

GRIDX 2
-------
General Integration Accuracy     IntAcc      ... 4.020
Radial Grid Type                 RadialGrid  ... OptM3 with GC (2021)
Angular Grid (max. ang.)         AngularGrid ... 2 (Lebedev-110)
Angular grid pruning method      GridPruning ... 4 (adaptive)
Weight generation scheme         WeightScheme... mBecke (2022)
Basis function cutoff            BFCut       ... 1.0000e-11
Integration weight cutoff        WCut        ... 1.0000e-14
Partially contracted basis set               ... on
Rotationally invariant grid construction     ... off
Angular grids for H and He will be reduced by one unit
Diffuse basis detected: some atoms will have their outermost
                        angular grid increased by 1.

Total number of grid points                  ...    10269
Total number of batches                      ...       84
Average number of points per batch           ...      122
Average number of grid points per atom       ...     1467
UseSFitting                                  ... on

GRIDX 3
-------
General Integration Accuracy     IntAcc      ... 4.338
Radial Grid Type                 RadialGrid  ... OptM3 with GC (2021)
Angular Grid (max. ang.)         AngularGrid ... 3 (Lebedev-194)
Angular grid pruning method      GridPruning ... 4 (adaptive)
Weight generation scheme         WeightScheme... mBecke (2022)
Basis function cutoff            BFCut       ... 1.0000e-11
Integration weight cutoff        WCut        ... 1.0000e-14
Partially contracted basis set               ... on
Rotationally invariant grid construction     ... off
Angular grids for H and He will be reduced by one unit
Diffuse basis detected: some atoms will have their outermost
                        angular grid increased by 1.

Total number of grid points                  ...    23136
Total number of batches                      ...      185
Average number of points per batch           ...      125
Average number of grid points per atom       ...     3305
UseSFitting                                  ... on
Initializing property integral containers    ... done (  0.0 sec)

SHARK setup successfully completed in   0.4 seconds

Maximum memory used throughout the entire STARTUP-calculation: 13.8 MB
[1741611892.940868] [ohm:3545827:0]        ib_iface.c:1059 UCX  ERROR ibv_create_cq(cqe=256) failed: Connection timed out
[1741611892.950561] [ohm:3545825:0]        ib_iface.c:1059 UCX  ERROR ibv_create_cq(cqe=256) failed: Connection timed out
[1741611893.015946] [ohm:3545856:0]        ib_iface.c:1059 UCX  ERROR ibv_create_cq(cqe=256) failed: Connection timed out
[1741611893.017670] [ohm:3545858:0]        ib_iface.c:1059 UCX  ERROR ibv_create_cq(cqe=256) failed: Connection timed out
[1741611893.018231] [ohm:3545831:0]        ib_iface.c:1059 UCX  ERROR ibv_create_cq(cqe=256) failed: Connection timed out
[1741611893.030385] [ohm:3545826:0]        ib_iface.c:1059 UCX  ERROR ibv_create_cq(cqe=256) failed: Connection timed out
[1741611893.035949] [ohm:3545838:0]        ib_iface.c:1059 UCX  ERROR ibv_create_cq(cqe=256) failed: Connection timed out
[1741611893.043845] [ohm:3545921:0]        ib_iface.c:1059 UCX  ERROR ibv_create_cq(cqe=256) failed: Connection timed out
[1741611893.046010] [ohm:3545835:0]        ib_iface.c:1059 UCX  ERROR ibv_create_cq(cqe=256) failed: Connection timed out
[1741611893.058139] [ohm:3545829:0]        ib_iface.c:1059 UCX  ERROR ibv_create_cq(cqe=256) failed: Connection timed out
[1741611893.058204] [ohm:3545888:0]        ib_iface.c:1059 UCX  ERROR ibv_create_cq(cqe=256) failed: Connection timed out
[1741611893.069064] [ohm:3545833:0]        ib_iface.c:1059 UCX  ERROR ibv_create_cq(cqe=256) failed: Connection timed out
[1741611893.081317] [ohm:3545837:0]        ib_iface.c:1059 UCX  ERROR ibv_create_cq(cqe=256) failed: Connection timed out
[1741611893.087007] [ohm:3545866:0]        ib_iface.c:1059 UCX  ERROR ibv_create_cq(cqe=256) failed: Connection timed out
[1741611893.088076] [ohm:3545882:0]        ib_iface.c:1059 UCX  ERROR ibv_create_cq(cqe=256) failed: Connection timed out
[1741611893.088631] [ohm:3545893:0]        ib_iface.c:1059 UCX  ERROR ibv_create_cq(cqe=256) failed: Connection timed out
[1741611893.089120] [ohm:3545966:0]        ib_iface.c:1059 UCX  ERROR ibv_create_cq(cqe=256) failed: Connection timed out
[1741611893.089810] [ohm:3545832:0]        ib_iface.c:1059 UCX  ERROR ibv_create_cq(cqe=256) failed: Connection timed out
[1741611893.093073] [ohm:3545836:0]        ib_iface.c:1059 UCX  ERROR ibv_create_cq(cqe=256) failed: Connection timed out
[1741611893.098368] [ohm:3545894:0]        ib_iface.c:1059 UCX  ERROR ibv_create_cq(cqe=256) failed: Connection timed out
[1741611893.103892] [ohm:3545855:0]        ib_iface.c:1059 UCX  ERROR ibv_create_cq(cqe=256) failed: Connection timed out
[1741611893.107284] [ohm:3545848:0]        ib_iface.c:1059 UCX  ERROR ibv_create_cq(cqe=256) failed: Connection timed out
[1741611893.110865] [ohm:3545834:0]        ib_iface.c:1059 UCX  ERROR ibv_create_cq(cqe=256) failed: Connection timed out
[1741611893.110957] [ohm:3545911:0]        ib_iface.c:1059 UCX  ERROR ibv_create_cq(cqe=256) failed: Connection timed out
[1741611893.134399] [ohm:3545863:0]        ib_iface.c:1059 UCX  ERROR ibv_create_cq(cqe=256) failed: Connection timed out
[1741611893.153246] [ohm:3545974:0]        ib_iface.c:1059 UCX  ERROR ibv_create_cq(cqe=256) failed: Connection timed out
[1741611893.163379] [ohm:3545875:0]        ib_iface.c:1059 UCX  ERROR ibv_create_cq(cqe=256) failed: Connection timed out
[1741611893.164061] [ohm:3545878:0]        ib_iface.c:1059 UCX  ERROR ibv_create_cq(cqe=256) failed: Connection timed out
[1741611893.164723] [ohm:3545860:0]        ib_iface.c:1059 UCX  ERROR ibv_create_cq(cqe=256) failed: Connection timed out
[1741611893.176271] [ohm:3545940:0]        ib_iface.c:1059 UCX  ERROR ibv_create_cq(cqe=256) failed: Connection timed out
[1741611893.177387] [ohm:3545859:0]        ib_iface.c:1059 UCX  ERROR ibv_create_cq(cqe=256) failed: Connection timed out
[1741611893.179010] [ohm:3545961:0]        ib_iface.c:1059 UCX  ERROR ibv_create_cq(cqe=256) failed: Connection timed out
[1741611893.179010] [ohm:3545830:0]        ib_iface.c:1059 UCX  ERROR ibv_create_cq(cqe=256) failed: Connection timed out
[1741611893.182880] [ohm:3545913:0]        ib_iface.c:1059 UCX  ERROR ibv_create_cq(cqe=256) failed: Connection timed out
[1741611893.183936] [ohm:3545868:0]        ib_iface.c:1059 UCX  ERROR ibv_create_cq(cqe=256) failed: Connection timed out
[1741611893.189352] [ohm:3545918:0]        ib_iface.c:1059 UCX  ERROR ibv_create_cq(cqe=256) failed: Connection timed out
[1741611893.196291] [ohm:3545862:0]        ib_iface.c:1059 UCX  ERROR ibv_create_cq(cqe=256) failed: Connection timed out
[1741611893.218222] [ohm:3545850:0]        ib_iface.c:1059 UCX  ERROR ibv_create_cq(cqe=256) failed: Connection timed out
[1741611893.224519] [ohm:3545930:0]        ib_iface.c:1059 UCX  ERROR ibv_create_cq(cqe=256) failed: Connection timed out
[1741611893.224920] [ohm:3545828:0]        ib_iface.c:1059 UCX  ERROR ibv_create_cq(cqe=256) failed: Connection timed out
[1741611893.227742] [ohm:3545889:0]        ib_iface.c:1059 UCX  ERROR ibv_create_cq(cqe=256) failed: Connection timed out
[1741611893.233991] [ohm:3545926:0]        ib_iface.c:1059 UCX  ERROR ibv_create_cq(cqe=256) failed: Connection timed out
[1741611893.238295] [ohm:3545952:0]        ib_iface.c:1059 UCX  ERROR ibv_create_cq(cqe=256) failed: Connection timed out
[1741611893.240392] [ohm:3545861:0]        ib_iface.c:1059 UCX  ERROR ibv_create_cq(cqe=256) failed: Connection timed out
[1741611893.246210] [ohm:3545872:0]        ib_iface.c:1059 UCX  ERROR ibv_create_cq(cqe=256) failed: Connection timed out
[1741611893.262795] [ohm:3545851:0]        ib_iface.c:1059 UCX  ERROR ibv_create_cq(cqe=256) failed: Connection timed out
[1741611893.269403] [ohm:3545917:0]        ib_iface.c:1059 UCX  ERROR ibv_create_cq(cqe=256) failed: Connection timed out
[1741611893.276286] [ohm:3545892:0]        ib_iface.c:1059 UCX  ERROR ibv_create_cq(cqe=256) failed: Connection timed out
[1741611893.281019] [ohm:3545971:0]        ib_iface.c:1059 UCX  ERROR ibv_create_cq(cqe=256) failed: Connection timed out
[1741611893.282568] [ohm:3545933:0]        ib_iface.c:1059 UCX  ERROR ibv_create_cq(cqe=256) failed: Connection timed out
[1741611893.285233] [ohm:3545886:0]        ib_iface.c:1059 UCX  ERROR ibv_create_cq(cqe=256) failed: Connection timed out
[1741611893.287110] [ohm:3545890:0]        ib_iface.c:1059 UCX  ERROR ibv_create_cq(cqe=256) failed: Connection timed out
[1741611893.290494] [ohm:3545903:0]        ib_iface.c:1059 UCX  ERROR ibv_create_cq(cqe=256) failed: Connection timed out
[1741611893.290643] [ohm:3545968:0]        ib_iface.c:1059 UCX  ERROR ibv_create_cq(cqe=256) failed: Connection timed out
[1741611893.295754] [ohm:3545898:0]        ib_iface.c:1059 UCX  ERROR ibv_create_cq(cqe=256) failed: Connection timed out
[1741611893.296089] [ohm:3545945:0]        ib_iface.c:1059 UCX  ERROR ibv_create_cq(cqe=256) failed: Connection timed out
[1741611893.300977] [ohm:3545887:0]        ib_iface.c:1059 UCX  ERROR ibv_create_cq(cqe=256) failed: Connection timed out
[1741611893.302046] [ohm:3545884:0]        ib_iface.c:1059 UCX  ERROR ibv_create_cq(cqe=256) failed: Connection timed out
[1741611893.302139] [ohm:3545960:0]        ib_iface.c:1059 UCX  ERROR ibv_create_cq(cqe=256) failed: Connection timed out
[1741611893.303465] [ohm:3545955:0]        ib_iface.c:1059 UCX  ERROR ibv_create_cq(cqe=256) failed: Connection timed out
[1741611893.309415] [ohm:3545883:0]        ib_iface.c:1059 UCX  ERROR ibv_create_cq(cqe=256) failed: Connection timed out
[1741611893.310774] [ohm:3545891:0]        ib_iface.c:1059 UCX  ERROR ibv_create_cq(cqe=256) failed: Connection timed out
[1741611893.310776] [ohm:3545922:0]        ib_iface.c:1059 UCX  ERROR ibv_create_cq(cqe=256) failed: Connection timed out
[1741611893.312525] [ohm:3545964:0]        ib_iface.c:1059 UCX  ERROR ibv_create_cq(cqe=256) failed: Connection timed out


           ************************************************************
           *        Program running with 64 parallel MPI-processes    *
           *              working on a common directory               *
           ************************************************************
-------------------------------------------------------------------------------
                                 ORCA GUESS
                   Start orbitals & Density for SCF / CASSCF
-------------------------------------------------------------------------------

------------
SCF SETTINGS
------------
Hamiltonian:
 Density Functional     Method          .... DFT(GTOs)
  Functional kind                       .... Exchange-Correlation
  Functional name                       .... wB97M-V exchange-correlation functional
  Functional family                     .... Hybrid MGGA
  Functional refs                              
    [ 0] N. Mardirossian and M. Head-Gordon.,  J. Chem. Phys. 144, 214110 (2016), doi: 10.1063/1.4952647
  Fraction of HF Exchange (short range) .... 0.1500
  Fraction of HF Exchange (long range)  .... 1.0000
  Range separation parameter mu         .... 0.3000
  Functional external parameters        .... 17
    Parameter  0 _cx00      =  8.500000e-01 : u^00 coefficient for exchange
    Parameter  1 _cx01      =  1.007000e+00 : u^01 coefficient for exchange
    Parameter  2 _cx10      =  2.590000e-01 : u^10 coefficient for exchange
    Parameter  3 _css00     =  4.430000e-01 : u^00 coefficient for same-spin correlation
    Parameter  4 _css04     = -1.437000e+00 : u^04 coefficient for same-spin correlation
    Parameter  5 _css10     = -4.535000e+00 : u^10 coefficient for same-spin correlation
    Parameter  6 _css20     = -3.390000e+00 : u^20 coefficient for same-spin correlation
    Parameter  7 _css43     =  4.278000e+00 : u^43 coefficient for same-spin correlation
    Parameter  8 _cos00     =  1.000000e+00 : u^00 coefficient for opposite-spin correlation
    Parameter  9 _cos10     =  1.358000e+00 : u^10 coefficient for opposite-spin correlation
    Parameter 10 _cos20     =  2.924000e+00 : u^20 coefficient for opposite-spin correlation
    Parameter 11 _cos21     = -8.812000e+00 : u^21 coefficient for opposite-spin correlation
    Parameter 12 _cos60     = -1.390000e+00 : u^60 coefficient for opposite-spin correlation
    Parameter 13 _cos61     =  9.142000e+00 : u^61 coefficient for opposite-spin correlation
    Parameter 14 _alpha     =  1.000000e+00 : fraction of HF exchange
    Parameter 15 _beta      = -8.500000e-01 : fraction of short-range exchange
    Parameter 16 _omega     =  3.000000e-01 : range-separation constant
 Long-range corrected/Screened/Range-Separated Hybrid DFT is turned on
   Amount of maximum screened exact exchange              ....  0.850000
   Range separation parameter mu (erf(mu*r12)/r12)        ....  0.300000
 RI-approximation to the Coulomb term is turned on
   Number of AuxJ basis functions       .... 191
   RIJ-COSX (HFX calculated with COS-X)).... on


General Settings:
 Integral files         IntName         .... orca
 Hartree-Fock type      HFTyp           .... UHF
 Total Charge           Charge          ....    0
 Multiplicity           Mult            ....    3
 Number of Electrons    NEL             ....   24
 Basis Dimension        Dim             ....  182
 Nuclear Repulsion      ENuc            ....     67.7057879755 Eh

Convergence Acceleration:
 AO-DIIS                CNVDIIS         .... on
   Start iteration      DIISMaxIt       ....    12
   Startup error        DIISStart       ....  0.200000
   # of expansion vecs  DIISMaxEq       ....     5
   Bias factor          DIISBfac        ....   1.050
   Max. coefficient     DIISMaxC        ....  10.000
 MO-DIIS                CNVKDIIS        .... off
 Trust-Rad. Augm. Hess. CNVTRAH         .... auto
   Auto Start mean grad. ratio tolernc. ....  1.125000
   Auto Start start iteration           ....    50
   Auto Start num. interpolation iter.  ....    10
   Max. Number of Micro iterations      ....    24
   Max. Number of Macro iterations      .... Maxiter - #DIIS iter
   Number of Davidson start vectors     ....     2
   Converg. threshold    (grad. norm)   ....   1.000e-05
   Grad. Scal. Fac. for Micro threshold ....   0.100
   Minimum threshold for Micro iter.    ....   1.000e-02
   NR start threshold (gradient norm)   ....   1.000e-04
   Initial trust radius                 ....   0.400
   Minimum AH scaling param. (alpha)    ....   1.000
   Maximum AH scaling param. (alpha)    .... 1000.000
   Quad. conv. algorithm                .... NR
   White noise on init. David. guess    .... on
   Maximum white noise                  ....   0.010
   Pseudo random numbers                .... off
   Inactive MOs                         .... canonical
   Orbital update algorithm             .... Taylor
   Preconditioner                       .... Diag
   Full preconditioner red. dimension   ....   250
 SOSCF                  CNVSOSCF        .... on
   Start iteration      SOSCFMaxIt      ....   150
   Startup grad/error   SOSCFStart      ....  0.003300
   Hessian update       SOSCFHessUp     .... L-BFGS
 Level Shifting         CNVShift        .... on
   Level shift para.    LevelShift      ....    0.2500
   Turn off err/grad.   ShiftErr        ....    0.0010
 Zerner damping         CNVZerner       .... off
 Static damping         CNVDamp         .... on
   Fraction old density DampFac         ....    0.7000
   Max. Damping (<1)    DampMax         ....    0.9800
   Min. Damping (>=0)   DampMin         ....    0.0000
   Turn off err/grad.   DampErr         ....    0.1000

SCF Procedure:
 Maximum # iterations   MaxIter         ....   125
 SCF integral mode      SCFMode         .... Direct
   Integral package                     .... SHARK and LIBINT hybrid scheme
 Reset frequency        DirectResetFreq ....    20
 Integral Threshold     Thresh          ....  2.500e-11 Eh
 Primitive CutOff       TCut            ....  2.500e-12 Eh

Convergence Tolerance:
 Convergence Check Mode ConvCheckMode   .... Total+1el-Energy
 Convergence forced     ConvForced      .... 1
 Energy Change          TolE            ....  1.000e-08 Eh
 1-El. energy change                    ....  1.000e-05 Eh
 Orbital Gradient       TolG            ....  1.000e-05
 Orbital Rotation angle TolX            ....  1.000e-05
 DIIS Error             TolErr          ....  5.000e-07

------------------------------
INITIAL GUESS: MODEL POTENTIAL
------------------------------
Loading Hartree-Fock densities                     ... done
Calculating cut-offs                               ... done
Initializing the effective Hamiltonian             ... done
Setting up the integral package (SHARK)            ... done
Starting the Coulomb interaction                   ... done (   0.0 sec)
Making the grid                                    ... done (   0.0 sec)
Mapping shells                                     ... done
Starting the XC term evaluation                    ... done (   0.0 sec)
  promolecular density results
     # of electrons  =     23.998485141
     EX              =    -19.467114467
     EC              =     -0.765526412
     EX+EC           =    -20.232640879
Transforming the Hamiltonian                       ... done (   0.0 sec)
Diagonalizing the Hamiltonian                      ... done (   0.0 sec)
Back transforming the eigenvectors                 ... done (   0.0 sec)
Now organizing SCF variables                       ... done
                      ------------------
                      INITIAL GUESS DONE (   0.1 sec)
                      ------------------
             **** ENERGY FILE WAS UPDATED (orca.en.tmp) ****
Finished Guess after   1.7 sec
Maximum memory used throughout the entire GUESS-calculation: 9.5 MB
[1741611895.258466] [ohm:3546155:0]        ib_iface.c:1059 UCX  ERROR ibv_create_cq(cqe=256) failed: Connection timed out
[1741611895.268659] [ohm:3546169:0]        ib_iface.c:1059 UCX  ERROR ibv_create_cq(cqe=256) failed: Connection timed out
[1741611895.270444] [ohm:3546162:0]        ib_iface.c:1059 UCX  ERROR ibv_create_cq(cqe=256) failed: Connection timed out
[1741611895.270879] [ohm:3546156:0]        ib_iface.c:1059 UCX  ERROR ibv_create_cq(cqe=256) failed: Connection timed out
[1741611895.320422] [ohm:3546173:0]        ib_iface.c:1059 UCX  ERROR ibv_create_cq(cqe=256) failed: Connection timed out
[1741611895.329354] [ohm:3546165:0]        ib_iface.c:1059 UCX  ERROR ibv_create_cq(cqe=256) failed: Connection timed out
[1741611895.331382] [ohm:3546161:0]        ib_iface.c:1059 UCX  ERROR ibv_create_cq(cqe=256) failed: Connection timed out
[1741611895.333333] [ohm:3546280:0]        ib_iface.c:1059 UCX  ERROR ibv_create_cq(cqe=256) failed: Connection timed out
[1741611895.341521] [ohm:3546194:0]        ib_iface.c:1059 UCX  ERROR ibv_create_cq(cqe=256) failed: Connection timed out
[1741611895.341958] [ohm:3546170:0]        ib_iface.c:1059 UCX  ERROR ibv_create_cq(cqe=256) failed: Connection timed out
[1741611895.345103] [ohm:3546163:0]        ib_iface.c:1059 UCX  ERROR ibv_create_cq(cqe=256) failed: Connection timed out
[1741611895.374480] [ohm:3546172:0]        ib_iface.c:1059 UCX  ERROR ibv_create_cq(cqe=256) failed: Connection timed out
[1741611895.387845] [ohm:3546251:0]        ib_iface.c:1059 UCX  ERROR ibv_create_cq(cqe=256) failed: Connection timed out
[1741611895.406136] [ohm:3546206:0]        ib_iface.c:1059 UCX  ERROR ibv_create_cq(cqe=256) failed: Connection timed out
[1741611895.409218] [ohm:3546184:0]        ib_iface.c:1059 UCX  ERROR ibv_create_cq(cqe=256) failed: Connection timed out
[1741611895.415838] [ohm:3546180:0]        ib_iface.c:1059 UCX  ERROR ibv_create_cq(cqe=256) failed: Connection timed out
[1741611895.418484] [ohm:3546164:0]        ib_iface.c:1059 UCX  ERROR ibv_create_cq(cqe=256) failed: Connection timed out
[1741611895.423765] [ohm:3546215:0]        ib_iface.c:1059 UCX  ERROR ibv_create_cq(cqe=256) failed: Connection timed out
[1741611895.424515] [ohm:3546158:0]        ib_iface.c:1059 UCX  ERROR ibv_create_cq(cqe=256) failed: Connection timed out
[1741611895.428986] [ohm:3546191:0]        ib_iface.c:1059 UCX  ERROR ibv_create_cq(cqe=256) failed: Connection timed out
[1741611895.433975] [ohm:3546185:0]        ib_iface.c:1059 UCX  ERROR ibv_create_cq(cqe=256) failed: Connection timed out
[1741611895.440837] [ohm:3546231:0]        ib_iface.c:1059 UCX  ERROR ibv_create_cq(cqe=256) failed: Connection timed out
[1741611895.445699] [ohm:3546254:0]        ib_iface.c:1059 UCX  ERROR ibv_create_cq(cqe=256) failed: Connection timed out
[1741611895.455634] [ohm:3546263:0]        ib_iface.c:1059 UCX  ERROR ibv_create_cq(cqe=256) failed: Connection timed out
[1741611895.462103] [ohm:3546197:0]        ib_iface.c:1059 UCX  ERROR ibv_create_cq(cqe=256) failed: Connection timed out
[1741611895.465025] [ohm:3546248:0]        ib_iface.c:1059 UCX  ERROR ibv_create_cq(cqe=256) failed: Connection timed out
[1741611895.466671] [ohm:3546171:0]        ib_iface.c:1059 UCX  ERROR ibv_create_cq(cqe=256) failed: Connection timed out
[1741611895.470118] [ohm:3546175:0]        ib_iface.c:1059 UCX  ERROR ibv_create_cq(cqe=256) failed: Connection timed out
[1741611895.477574] [ohm:3546157:0]        ib_iface.c:1059 UCX  ERROR ibv_create_cq(cqe=256) failed: Connection timed out
[1741611895.479430] [ohm:3546282:0]        ib_iface.c:1059 UCX  ERROR ibv_create_cq(cqe=256) failed: Connection timed out
[1741611895.485527] [ohm:3546202:0]        ib_iface.c:1059 UCX  ERROR ibv_create_cq(cqe=256) failed: Connection timed out
[1741611895.505447] [ohm:3546260:0]        ib_iface.c:1059 UCX  ERROR ibv_create_cq(cqe=256) failed: Connection timed out
[1741611895.518388] [ohm:3546178:0]        ib_iface.c:1059 UCX  ERROR ibv_create_cq(cqe=256) failed: Connection timed out
[1741611895.520382] [ohm:3546275:0]        ib_iface.c:1059 UCX  ERROR ibv_create_cq(cqe=256) failed: Connection timed out
[1741611895.547120] [ohm:3546265:0]        ib_iface.c:1059 UCX  ERROR ibv_create_cq(cqe=256) failed: Connection timed out
[1741611895.547173] [ohm:3546174:0]        ib_iface.c:1059 UCX  ERROR ibv_create_cq(cqe=256) failed: Connection timed out
[1741611895.554873] [ohm:3546211:0]        ib_iface.c:1059 UCX  ERROR ibv_create_cq(cqe=256) failed: Connection timed out
[1741611895.557501] [ohm:3546240:0]        ib_iface.c:1059 UCX  ERROR ibv_create_cq(cqe=256) failed: Connection timed out
[1741611895.559298] [ohm:3546188:0]        ib_iface.c:1059 UCX  ERROR ibv_create_cq(cqe=256) failed: Connection timed out
[1741611895.562424] [ohm:3546244:0]        ib_iface.c:1059 UCX  ERROR ibv_create_cq(cqe=256) failed: Connection timed out
[1741611895.562470] [ohm:3546176:0]        ib_iface.c:1059 UCX  ERROR ibv_create_cq(cqe=256) failed: Connection timed out
[1741611895.574220] [ohm:3546297:0]        ib_iface.c:1059 UCX  ERROR ibv_create_cq(cqe=256) failed: Connection timed out
[1741611895.580499] [ohm:3546258:0]        ib_iface.c:1059 UCX  ERROR ibv_create_cq(cqe=256) failed: Connection timed out
[1741611895.581347] [ohm:3546269:0]        ib_iface.c:1059 UCX  ERROR ibv_create_cq(cqe=256) failed: Connection timed out
[1741611895.588097] [ohm:3546235:0]        ib_iface.c:1059 UCX  ERROR ibv_create_cq(cqe=256) failed: Connection timed out
[1741611895.589656] [ohm:3546286:0]        ib_iface.c:1059 UCX  ERROR ibv_create_cq(cqe=256) failed: Connection timed out
[1741611895.589688] [ohm:3546160:0]        ib_iface.c:1059 UCX  ERROR ibv_create_cq(cqe=256) failed: Connection timed out
[1741611895.592604] [ohm:3546273:0]        ib_iface.c:1059 UCX  ERROR ibv_create_cq(cqe=256) failed: Connection timed out
[1741611895.604023] [ohm:3546303:0]        ib_iface.c:1059 UCX  ERROR ibv_create_cq(cqe=256) failed: Connection timed out
[1741611895.606392] [ohm:3546183:0]        ib_iface.c:1059 UCX  ERROR ibv_create_cq(cqe=256) failed: Connection timed out
[1741611895.607460] [ohm:3546179:0]        ib_iface.c:1059 UCX  ERROR ibv_create_cq(cqe=256) failed: Connection timed out
[1741611895.610067] [ohm:3546168:0]        ib_iface.c:1059 UCX  ERROR ibv_create_cq(cqe=256) failed: Connection timed out
[1741611895.614222] [ohm:3546159:0]        ib_iface.c:1059 UCX  ERROR ibv_create_cq(cqe=256) failed: Connection timed out
[1741611895.615805] [ohm:3546166:0]        ib_iface.c:1059 UCX  ERROR ibv_create_cq(cqe=256) failed: Connection timed out
[1741611895.615807] [ohm:3546227:0]        ib_iface.c:1059 UCX  ERROR ibv_create_cq(cqe=256) failed: Connection timed out
[1741611895.618625] [ohm:3546205:0]        ib_iface.c:1059 UCX  ERROR ibv_create_cq(cqe=256) failed: Connection timed out
[1741611895.619597] [ohm:3546181:0]        ib_iface.c:1059 UCX  ERROR ibv_create_cq(cqe=256) failed: Connection timed out
[1741611895.620339] [ohm:3546222:0]        ib_iface.c:1059 UCX  ERROR ibv_create_cq(cqe=256) failed: Connection timed out
[1741611895.620719] [ohm:3546167:0]        ib_iface.c:1059 UCX  ERROR ibv_create_cq(cqe=256) failed: Connection timed out
[1741611895.621873] [ohm:3546218:0]        ib_iface.c:1059 UCX  ERROR ibv_create_cq(cqe=256) failed: Connection timed out
[1741611895.622482] [ohm:3546182:0]        ib_iface.c:1059 UCX  ERROR ibv_create_cq(cqe=256) failed: Connection timed out
[1741611895.623174] [ohm:3546177:0]        ib_iface.c:1059 UCX  ERROR ibv_create_cq(cqe=256) failed: Connection timed out
[1741611895.623360] [ohm:3546230:0]        ib_iface.c:1059 UCX  ERROR ibv_create_cq(cqe=256) failed: Connection timed out
[1741611895.624158] [ohm:3546292:0]        ib_iface.c:1059 UCX  ERROR ibv_create_cq(cqe=256) failed: Connection timed out


           ************************************************************
           *        Program running with 64 parallel MPI-processes    *
           *              working on a common directory               *
           ************************************************************

-------------------------------------------------------------------------------------------
                                      ORCA LEAN-SCF
                              memory conserving SCF solver
-------------------------------------------------------------------------------------------

----------------------------------------D-I-I-S--------------------------------------------
Iteration    Energy (Eh)           Delta-E    RMSDP     MaxDP     DIISErr   Damp  Time(sec)
-------------------------------------------------------------------------------------------
               ***  Starting incremental Fock matrix formation  ***
    1    -153.6990010315256541     0.00e+00  8.78e-04  2.53e-02  6.71e-02  0.700   0.4
    2    -153.7238251247929099    -2.48e-02  7.75e-04  2.18e-02  4.29e-02  0.700   0.3
                               ***Turning on AO-DIIS***
    3    -153.7380730382902811    -1.42e-02  6.31e-04  1.91e-02  2.48e-02  0.700   0.3
    4    -153.7470874768818589    -9.01e-03  1.59e-03  4.96e-02  1.69e-02  0.000   0.3
    5    -153.7686520962334669    -2.16e-02  1.77e-04  6.19e-03  5.19e-03  0.000   0.3
                              *** Initializing SOSCF ***
---------------------------------------S-O-S-C-F--------------------------------------
Iteration    Energy (Eh)           Delta-E    RMSDP     MaxDP     MaxGrad    Time(sec)
--------------------------------------------------------------------------------------
    6    -153.7692991420410067    -6.47e-04  1.11e-04  3.57e-03  3.10e-03     0.4
               *** Restarting incremental Fock matrix formation ***
    7    -153.7696330707524908    -3.34e-04  6.25e-05  1.35e-03  4.92e-03     0.3
    8    -153.7697614230385170    -1.28e-04  8.50e-05  1.80e-03  1.86e-03     0.3
    9    -153.7698460924064818    -8.47e-05  2.16e-05  5.96e-04  8.37e-04     0.3
   10    -153.7698546444494525    -8.55e-06  6.74e-05  2.08e-03  8.61e-04     0.3
   11    -153.7698756443990078    -2.10e-05  7.89e-05  2.90e-03  8.64e-04     0.3
   12    -153.7698974902585576    -2.18e-05  2.07e-04  8.55e-03  8.57e-04     0.3
   13    -153.7699466554843468    -4.92e-05  3.20e-04  1.38e-02  1.77e-03     0.4
   14    -153.7700128825798629    -6.62e-05  3.97e-04  1.71e-02  2.32e-03     0.3
   15    -153.7700851427907480    -7.23e-05  2.29e-04  9.60e-03  1.99e-03     0.3
   16    -153.7701274909476297    -4.23e-05  4.56e-05  1.42e-03  9.14e-04     0.3
   17    -153.7701379930176984    -1.05e-05  1.38e-05  4.02e-04  2.20e-04     0.3
   18    -153.7701397058869475    -1.71e-06  1.44e-05  5.31e-04  1.22e-04     0.3
   19    -153.7701400246913295    -3.19e-07  3.14e-06  1.10e-04  4.69e-05     0.3
   20    -153.7701400649721677    -4.03e-08  1.41e-06  5.18e-05  1.57e-05     0.3
   21    -153.7701400726028282    -7.63e-09  7.53e-07  2.40e-05  8.24e-06     0.3
                 **** Energy Check signals convergence ****

               *****************************************************
               *                     SUCCESS                       *
               *           SCF CONVERGED AFTER  21 CYCLES          *
               *****************************************************

Recomputing exchange energy using gridx3       ... done (    0.175 sec)
Old exchange energy                            :     -6.202120433 Eh
New exchange energy                            :     -6.202122277 Eh
Exchange energy change after final integration :     -0.000001843 Eh
Total energy after final integration           :   -153.770141916 Eh
             **** ENERGY FILE WAS UPDATED (orca.en.tmp) ****

----------------
TOTAL SCF ENERGY
----------------

Total Energy       :       -153.77014191586730 Eh           -4184.29829 eV

Components:
Nuclear Repulsion  :         67.70578797546236 Eh            1842.36815 eV
Electronic Energy  :       -221.47592804806516 Eh           -6026.66639 eV
One Electron Energy:       -341.90964750052672 Eh           -9303.83451 eV
Two Electron Energy:        120.43371945246155 Eh            3277.16811 eV

Virial components:
Potential Energy   :       -307.14156497751537 Eh           -8357.74688 eV
Kinetic Energy     :        153.37142306164807 Eh            4173.44860 eV
Virial Ratio       :          2.00259969456017

DFT components:
N(Alpha)           :       12.999991090019 electrons
N(Beta)            :       10.999982915274 electrons
N(Total)           :       23.999974005294 electrons
E(XC)              :      -14.710814947684 Eh       

---------------
SCF CONVERGENCE
---------------

  Last Energy change         ...    7.6307e-09  Tolerance :   1.0000e-08
  Last MAX-Density change    ...    2.3961e-05  Tolerance :   1.0000e-07
  Last RMS-Density change    ...    7.5290e-07  Tolerance :   5.0000e-09
  Last DIIS Error            ...    3.1025e-03  Tolerance :   5.0000e-07
  Last Orbital Gradient      ...    8.2385e-06  Tolerance :   1.0000e-05
  Last Orbital Rotation      ...    1.2297e-04  Tolerance :   1.0000e-05


----------------------
UHF SPIN CONTAMINATION
----------------------

Warning: in a DFT calculation there is little theoretical justification to 
         calculate <S**2> as in Hartree-Fock theory. We will do it anyways
         but you should keep in mind that the values have only limited relevance

Expectation value of <S**2>     :     2.007811
Ideal value S*(S+1) for S=1.0   :     2.000000
Deviation                       :     0.007811

----------------
ORBITAL ENERGIES
----------------
                 SPIN UP ORBITALS
  NO   OCC          E(Eh)            E(eV) 
   0   1.0000     -19.393743      -527.7306 
   1   1.0000     -10.413022      -283.3527 
   2   1.0000     -10.363155      -281.9958 
   3   1.0000      -1.159720       -31.5576 
   4   1.0000      -0.889305       -24.1992 
   5   1.0000      -0.745692       -20.2913 
   6   1.0000      -0.615021       -16.7356 
   7   1.0000      -0.585286       -15.9264 
   8   1.0000      -0.562615       -15.3095 
   9   1.0000      -0.508920       -13.8484 
  10   1.0000      -0.443277       -12.0622 
  11   1.0000      -0.418827       -11.3969 
  12   1.0000      -0.325092        -8.8462 
  13   0.0000       0.040827         1.1110 
  14   0.0000       0.060935         1.6581 
  15   0.0000       0.078686         2.1412 
  16   0.0000       0.088187         2.3997 
  17   0.0000       0.113767         3.0958 
  18   0.0000       0.129461         3.5228 
  19   0.0000       0.130636         3.5548 
  20   0.0000       0.141443         3.8489 
  21   0.0000       0.169969         4.6251 
  22   0.0000       0.190424         5.1817 
  23   0.0000       0.201553         5.4845 

                 SPIN DOWN ORBITALS
  NO   OCC          E(Eh)            E(eV) 
   0   1.0000     -19.369044      -527.0585 
   1   1.0000     -10.414197      -283.3847 
   2   1.0000     -10.349598      -281.6269 
   3   1.0000      -1.102586       -30.0029 
   4   1.0000      -0.856050       -23.2943 
   5   1.0000      -0.719479       -19.5780 
   6   1.0000      -0.589776       -16.0486 
   7   1.0000      -0.549084       -14.9413 
   8   1.0000      -0.534877       -14.5547 
   9   1.0000      -0.476606       -12.9691 
  10   1.0000      -0.387534       -10.5453 
  11   0.0000      -0.058117        -1.5814 
  12   0.0000      -0.000379        -0.0103 
  13   0.0000       0.039549         1.0762 
  14   0.0000       0.061267         1.6672 
  15   0.0000       0.078816         2.1447 
  16   0.0000       0.091114         2.4793 
  17   0.0000       0.115075         3.1313 
  18   0.0000       0.130587         3.5534 
  19   0.0000       0.134843         3.6693 
  20   0.0000       0.143298         3.8993 
  21   0.0000       0.177684         4.8350 
*Only the first 10 virtual orbitals were printed.

                    ********************************
                    * MULLIKEN POPULATION ANALYSIS *
                    ********************************

--------------------------------------------
MULLIKEN ATOMIC CHARGES AND SPIN POPULATIONS
--------------------------------------------
   0 O :   -0.311870    0.956429
   1 C :    0.010125    0.000979
   2 C :   -0.635365    0.873332
   3 H :    0.202288    0.024830
   4 H :    0.201744    0.097123
   5 H :    0.256697    0.022091
   6 H :    0.276381    0.025215
Sum of atomic charges         :   -0.0000000
Sum of atomic spin populations:    2.0000000

-----------------------------------------------------
MULLIKEN REDUCED ORBITAL CHARGES AND SPIN POPULATIONS
-----------------------------------------------------
CHARGE
  0 O s       :     3.992222  s :     3.992222
      pz      :     1.592850  p :     4.298546
      px      :     1.268524
      py      :     1.437172
      dz2     :     0.002530  d :     0.019970
      dxz     :     0.002655
      dyz     :     0.002627
      dx2y2   :     0.004954
      dxy     :     0.007204
      f0      :     0.000116  f :     0.001133
      f+1     :     0.000139
      f-1     :     0.000113
      f+2     :     0.000035
      f-2     :     0.000203
      f+3     :     0.000242
      f-3     :     0.000284

  1 C s       :     3.206558  s :     3.206558
      pz      :     0.922069  p :     2.622286
      px      :     0.851289
      py      :     0.848928
      dz2     :     0.021158  d :     0.151150
      dxz     :     0.036953
      dyz     :     0.016948
      dx2y2   :     0.058306
      dxy     :     0.017785
      f0      :     0.001661  f :     0.009880
      f+1     :     0.000898
      f-1     :     0.001118
      f+2     :     0.000576
      f-2     :     0.002105
      f+3     :     0.001963
      f-3     :     0.001558

  2 C s       :     3.582343  s :     3.582343
      pz      :     0.956082  p :     3.023219
      px      :     1.113317
      py      :     0.953820
      dz2     :    -0.000661  d :     0.025658
      dxz     :     0.009576
      dyz     :     0.002001
      dx2y2   :     0.001143
      dxy     :     0.013599
      f0      :     0.000800  f :     0.004145
      f+1     :     0.000698
      f-1     :     0.000860
      f+2     :     0.000727
      f-2     :     0.000707
      f+3     :     0.000160
      f-3     :     0.000192

  3 H s       :     0.754335  s :     0.754335
      pz      :     0.010519  p :     0.040894
      px      :     0.022886
      py      :     0.007489
      dz2     :     0.000463  d :     0.002484
      dxz     :     0.000494
      dyz     :     0.000314
      dx2y2   :     0.000663
      dxy     :     0.000550

  4 H s       :     0.761767  s :     0.761767
      pz      :     0.009312  p :     0.033683
      px      :     0.008977
      py      :     0.015395
      dz2     :     0.000766  d :     0.002806
      dxz     :     0.000353
      dyz     :     0.000535
      dx2y2   :     0.000415
      dxy     :     0.000737

  5 H s       :     0.709576  s :     0.709576
      pz      :     0.015588  p :     0.031577
      px      :     0.003431
      py      :     0.012558
      dz2     :     0.000466  d :     0.002151
      dxz     :     0.000467
      dyz     :     0.000232
      dx2y2   :     0.000361
      dxy     :     0.000623

  6 H s       :     0.686099  s :     0.686099
      pz      :     0.017226  p :     0.035296
      px      :     0.000171
      py      :     0.017899
      dz2     :     0.000537  d :     0.002224
      dxz     :     0.000361
      dyz     :     0.000362
      dx2y2   :     0.000597
      dxy     :     0.000366


SPIN
  0 O s       :     0.005023  s :     0.005023
      pz      :     0.334301  p :     0.954859
      px      :     0.361092
      py      :     0.259466
      dz2     :     0.000022  d :    -0.003301
      dxz     :    -0.000030
      dyz     :    -0.001292
      dx2y2   :    -0.002426
      dxy     :     0.000424
      f0      :     0.000005  f :    -0.000151
      f+1     :    -0.000000
      f-1     :     0.000004
      f+2     :     0.000008
      f-2     :    -0.000023
      f+3     :    -0.000070
      f-3     :    -0.000075

  1 C s       :     0.018738  s :     0.018738
      pz      :    -0.019040  p :    -0.077863
      px      :    -0.019049
      py      :    -0.039774
      dz2     :     0.016627  d :     0.057308
      dxz     :    -0.001371
      dyz     :     0.013517
      dx2y2   :     0.023105
      dxy     :     0.005429
      f0      :     0.001129  f :     0.002797
      f+1     :     0.000128
      f-1     :     0.000012
      f+2     :     0.000116
      f-2     :     0.000550
      f+3     :     0.000588
      f-3     :     0.000275

  2 C s       :    -0.031368  s :    -0.031368
      pz      :     0.285117  p :     0.915339
      px      :     0.080469
      py      :     0.549753
      dz2     :    -0.003571  d :    -0.009608
      dxz     :    -0.002467
      dyz     :    -0.000879
      dx2y2   :    -0.000312
      dxy     :    -0.002379
      f0      :    -0.000128  f :    -0.001031
      f+1     :    -0.000022
      f-1     :    -0.000225
      f+2     :    -0.000231
      f-2     :    -0.000217
      f+3     :    -0.000077
      f-3     :    -0.000131

  3 H s       :     0.023143  s :     0.023143
      pz      :    -0.001946  p :     0.001700
      px      :     0.004131
      py      :    -0.000485
      dz2     :    -0.000015  d :    -0.000013
      dxz     :    -0.000002
      dyz     :     0.000024
      dx2y2   :    -0.000022
      dxy     :     0.000002

  4 H s       :     0.081071  s :     0.081071
      pz      :     0.001501  p :     0.015945
      px      :     0.002773
      py      :     0.011671
      dz2     :     0.000024  d :     0.000107
      dxz     :     0.000035
      dyz     :     0.000036
      dx2y2   :     0.000026
      dxy     :    -0.000013

  5 H s       :    -0.003877  s :    -0.003877
      pz      :     0.012532  p :     0.024942
      px      :     0.000090
      py      :     0.012320
      dz2     :     0.000226  d :     0.001027
      dxz     :     0.000073
      dyz     :     0.000180
      dx2y2   :     0.000106
      dxy     :     0.000441

  6 H s       :     0.000749  s :     0.000749
      pz      :     0.008805  p :     0.023417
      px      :     0.001538
      py      :     0.013074
      dz2     :     0.000254  d :     0.001049
      dxz     :     0.000208
      dyz     :     0.000054
      dx2y2   :     0.000425
      dxy     :     0.000109



                     *******************************
                     * LOEWDIN POPULATION ANALYSIS *
                     *******************************

-------------------------------------------
LOEWDIN ATOMIC CHARGES AND SPIN POPULATIONS
-------------------------------------------
   0 O :    0.053175    0.896259
   1 C :   -0.203571    0.185604
   2 C :    0.262604    0.667353
   3 H :    0.043684    0.011409
   4 H :   -0.018716    0.067602
   5 H :   -0.068205    0.089143
   6 H :   -0.068971    0.082630

----------------------------------------------------
LOEWDIN REDUCED ORBITAL CHARGES AND SPIN POPULATIONS
----------------------------------------------------
CHARGE
  0 O s       :     3.501868  s :     3.501868
      pz      :     1.468866  p :     4.197304
      px      :     1.306617
      py      :     1.421820
      dz2     :     0.020474  d :     0.244180
      dxz     :     0.049856
      dyz     :     0.038708
      dx2y2   :     0.074126
      dxy     :     0.061016
      f0      :     0.000381  f :     0.003474
      f+1     :     0.000358
      f-1     :     0.000249
      f+2     :     0.000105
      f-2     :     0.000689
      f+3     :     0.000845
      f-3     :     0.000847

  1 C s       :     2.642732  s :     2.642732
      pz      :     0.910956  p :     2.602386
      px      :     0.819319
      py      :     0.872111
      dz2     :     0.140343  d :     0.878374
      dxz     :     0.197379
      dyz     :     0.182487
      dx2y2   :     0.147405
      dxy     :     0.210760
      f0      :     0.012859  f :     0.080080
      f+1     :     0.008149
      f-1     :     0.009938
      f+2     :     0.007853
      f-2     :     0.013936
      f+3     :     0.013302
      f-3     :     0.014043

  2 C s       :     2.712885  s :     2.712885
      pz      :     0.862312  p :     2.588972
      px      :     0.945114
      py      :     0.781546
      dz2     :     0.091916  d :     0.410905
      dxz     :     0.127853
      dyz     :     0.091570
      dx2y2   :     0.047718
      dxy     :     0.051848
      f0      :     0.005592  f :     0.024634
      f+1     :     0.003683
      f-1     :     0.003880
      f+2     :     0.004443
      f-2     :     0.004501
      f+3     :     0.001602
      f-3     :     0.000933

  3 H s       :     0.687136  s :     0.687136
      pz      :     0.074042  p :     0.242275
      px      :     0.096218
      py      :     0.072015
      dz2     :     0.004806  d :     0.026906
      dxz     :     0.006539
      dyz     :     0.003604
      dx2y2   :     0.005460
      dxy     :     0.006497

  4 H s       :     0.672297  s :     0.672297
      pz      :     0.115644  p :     0.308476
      px      :     0.074913
      py      :     0.117919
      dz2     :     0.009504  d :     0.037942
      dxz     :     0.003441
      dyz     :     0.010108
      dx2y2   :     0.007224
      dxy     :     0.007665

  5 H s       :     0.731997  s :     0.731997
      pz      :     0.088058  p :     0.302829
      px      :     0.129838
      py      :     0.084933
      dz2     :     0.006176  d :     0.033379
      dxz     :     0.009767
      dyz     :     0.002688
      dx2y2   :     0.006915
      dxy     :     0.007833

  6 H s       :     0.728789  s :     0.728789
      pz      :     0.089884  p :     0.305871
      px      :     0.114528
      py      :     0.101459
      dz2     :     0.007053  d :     0.034311
      dxz     :     0.006835
      dyz     :     0.006378
      dx2y2   :     0.007462
      dxy     :     0.006583


SPIN
  0 O s       :     0.016104  s :     0.016104
      pz      :     0.310398  p :     0.868269
      px      :     0.322594
      py      :     0.235278
      dz2     :     0.000599  d :     0.011924
      dxz     :     0.003010
      dyz     :     0.002817
      dx2y2   :     0.004629
      dxy     :     0.000869
      f0      :     0.000006  f :    -0.000037
      f+1     :     0.000007
      f-1     :    -0.000026
      f+2     :     0.000016
      f-2     :     0.000025
      f+3     :    -0.000006
      f-3     :    -0.000060

  1 C s       :    -0.003708  s :    -0.003708
      pz      :    -0.010167  p :    -0.015969
      px      :    -0.002463
      py      :    -0.003339
      dz2     :     0.047620  d :     0.184070
      dxz     :     0.001911
      dyz     :     0.063521
      dx2y2   :     0.052496
      dxy     :     0.018521
      f0      :     0.007640  f :     0.021211
      f+1     :     0.001371
      f-1     :     0.000271
      f+2     :     0.001441
      f-2     :     0.003775
      f+3     :     0.004495
      f-3     :     0.002218

  2 C s       :     0.014240  s :     0.014240
      pz      :     0.173097  p :     0.653590
      px      :     0.077129
      py      :     0.403364
      dz2     :     0.002621  d :    -0.000246
      dxz     :    -0.000161
      dyz     :    -0.000575
      dx2y2   :    -0.001394
      dxy     :    -0.000735
      f0      :     0.000228  f :    -0.000231
      f+1     :     0.000065
      f-1     :    -0.000270
      f+2     :    -0.000050
      f-2     :    -0.000156
      f+3     :     0.000020
      f-3     :    -0.000068

  3 H s       :     0.011077  s :     0.011077
      pz      :    -0.001353  p :     0.000615
      px      :     0.001862
      py      :     0.000106
      dz2     :    -0.000008  d :    -0.000284
      dxz     :    -0.000109
      dyz     :     0.000081
      dx2y2   :    -0.000233
      dxy     :    -0.000014

  4 H s       :     0.050694  s :     0.050694
      pz      :     0.005741  p :     0.017139
      px      :     0.006020
      py      :     0.005379
      dz2     :    -0.000073  d :    -0.000232
      dxz     :     0.000055
      dyz     :    -0.000004
      dx2y2   :    -0.000006
      dxy     :    -0.000204

  5 H s       :    -0.009090  s :    -0.009090
      pz      :     0.023810  p :     0.086732
      px      :     0.010798
      py      :     0.052124
      dz2     :     0.002169  d :     0.011501
      dxz     :     0.001067
      dyz     :     0.002001
      dx2y2   :     0.001565
      dxy     :     0.004699

  6 H s       :    -0.011679  s :    -0.011679
      pz      :     0.020836  p :     0.082634
      px      :     0.009478
      py      :     0.052320
      dz2     :     0.002576  d :     0.011675
      dxz     :     0.002690
      dyz     :     0.000566
      dx2y2   :     0.004515
      dxy     :     0.001327



                      *****************************
                      * MAYER POPULATION ANALYSIS *
                      *****************************

  NA   - Mulliken gross atomic population
  ZA   - Total nuclear charge
  QA   - Mulliken gross atomic charge
  VA   - Mayer's total valence
  BVA  - Mayer's bonded valence
  FA   - Mayer's free valence

  ATOM       NA         ZA         QA         VA         BVA        FA
  0 O      8.3119     8.0000    -0.3119     1.8336     1.0306     0.8030
  1 C      5.9899     6.0000     0.0101     3.5230     3.5094     0.0136
  2 C      6.6354     6.0000    -0.6354     3.5052     2.7312     0.7739
  3 H      0.7977     1.0000     0.2023     1.0387     1.0383     0.0004
  4 H      0.7983     1.0000     0.2017     0.9782     0.9716     0.0067
  5 H      0.7433     1.0000     0.2567     0.9059     0.9059    -0.0000
  6 H      0.7236     1.0000     0.2764     0.9285     0.9284     0.0001

  Mayer bond orders larger than 0.100000
B(  0-O ,  1-C ) :   0.8671 B(  1-C ,  2-C ) :   0.7572 B(  1-C ,  3-H ) :   1.0076 
B(  1-C ,  4-H ) :   0.9332 B(  2-C ,  5-H ) :   0.9459 B(  2-C ,  6-H ) :   0.9528 


-------
TIMINGS
-------

Total SCF time: 0 days 0 hours 0 min 8 sec 

Total time                  ....       8.592 sec
Sum of individual times     ....       8.547 sec  ( 99.5%)

SCF preparation             ....       1.816 sec  ( 21.1%)
Fock matrix formation       ....       5.465 sec  ( 63.6%)
  Startup                   ....       0.083 sec  (  1.5% of F)
  Split-RI-J                ....       0.584 sec  ( 10.7% of F)
  Chain of spheres X        ....       3.241 sec  ( 59.3% of F)
  XC integration            ....       1.227 sec  ( 22.5% of F)
    XC Preparation          ....       0.000 sec  (  0.0% of XC)
    Basis function eval.    ....       0.066 sec  (  5.3% of XC)
    Density eval.           ....       0.242 sec  ( 19.7% of XC)
    XC-Functional eval.     ....       0.016 sec  (  1.3% of XC)
    XC-Potential eval.      ....       0.330 sec  ( 26.9% of XC)
Diagonalization             ....       0.000 sec  (  0.0%)
Density matrix formation    ....       0.171 sec  (  2.0%)
Total Energy calculation    ....       0.162 sec  (  1.9%)
Population analysis         ....       0.048 sec  (  0.6%)
[...]
[1741611914.925285] [ohm:3547318:0]        ib_iface.c:1059 UCX  ERROR ibv_create_cq(cqe=256) failed: Connection timed out
[1741611914.925449] [ohm:3547363:0]        ib_iface.c:1059 UCX  ERROR ibv_create_cq(cqe=256) failed: Connection timed out
[1741611914.926340] [ohm:3547257:0]        ib_iface.c:1059 UCX  ERROR ibv_create_cq(cqe=256) failed: Connection timed out
[1741611914.930111] [ohm:3547304:0]        ib_iface.c:1059 UCX  ERROR ibv_create_cq(cqe=256) failed: Connection timed out
[1741611914.931470] [ohm:3547273:0]        ib_iface.c:1059 UCX  ERROR ibv_create_cq(cqe=256) failed: Connection timed out
[1741611914.931581] [ohm:3547375:0]        ib_iface.c:1059 UCX  ERROR ibv_create_cq(cqe=256) failed: Connection timed out
[1741611914.931862] [ohm:3547314:0]        ib_iface.c:1059 UCX  ERROR ibv_create_cq(cqe=256) failed: Connection timed out
[1741611914.932553] [ohm:3547255:0]        ib_iface.c:1059 UCX  ERROR ibv_create_cq(cqe=256) failed: Connection timed out
[1741611914.932595] [ohm:3547371:0]        ib_iface.c:1059 UCX  ERROR ibv_create_cq(cqe=256) failed: Connection timed out
[1741611914.955370] [ohm:3547338:0]        ib_iface.c:1059 UCX  ERROR ibv_create_cq(cqe=256) failed: Connection timed out


           ************************************************************
           *        Program running with 64 parallel MPI-processes    *
           *              working on a common directory               *
           ************************************************************

------------------------------------------------------------------------------
                              ORCA PROPERTY CALCULATIONS
------------------------------------------------------------------------------

GBWName                                 ... orca.gbw
Number of atoms                         ...      7
Number of basis functions               ...    182
Max core memory                         ...   1024 MB

Electric properties:
Dipole moment                           ... YES
Quadrupole moment                       ...  NO
Static polarizability (Dipole/Dipole)   ...  NO
Static polarizability (Dipole/Quad.)    ...  NO
Static polarizability (Quad./Quad.)     ...  NO
Static polarizability (Velocity)        ...  NO

Atomic electric properties:
Dipole moment                           ...  NO
Quadrupole moment                       ...  NO
Static polarizability                   ...  NO

Choice of electric origin               ... Center of mass
Position of electric origin             ...     0.768097     0.127014     0.137285

General magnetic properties:
Magnetizability                         ...  NO

EPR properties:
g-Tensor (aka g-matrix)                 ...  NO
Zero-Field splitting spin-orbit         ...  NO
Zero-field splitting spin-spin          ...  NO
Hyperfine couplings                     ...  NO (   0 nuclei)
Quadrupole couplings                    ...  NO (   0 nuclei)
Contact density                         ...  NO (   0 nuclei)

NMR properties:
Chemical shifts                         ...  NO (   0 nuclei)
Spin-rotation constants                 ...  NO (   0 nuclei)
Spin-spin couplings                     ...  NO (   0 nuclei,    0 pairs)

Choice of magnetic origin               ... GIAO
Position of magnetic origin             ...     0.000000     0.000000     0.000000

Properties with geometric perturbations:
SCF Hessian                             ...  NO
IR spectrum                             ...  NO
VCD spectrum                            ...  NO
X-ray spectroscopy properties:
SCF XES/XAS/RIXS spectra                ...  NO


-------------
DIPOLE MOMENT
-------------

Method             : SCF
Type of density    : Electron Density
Multiplicity       :   3
Irrep              :   0
Energy             :  -153.7701419158672991 Eh
Relativity type    : 
Basis              : AO
                                X                 Y                 Z
Electronic contribution:      1.915326393       1.832604857       0.710515626
Nuclear contribution   :     -2.453206583      -2.403415379      -0.591776944
                        -----------------------------------------
Total Dipole Moment    :     -0.537880190      -0.570810522       0.118738681
                        -----------------------------------------
Magnitude (a.u.)       :      0.793245628
Magnitude (Debye)      :      2.016270150



--------------------
Rotational spectrum 
--------------------
 
Rotational constants in cm-1:             1.410820             0.349046             0.305595 
Rotational constants in MHz :         42295.333086         10464.122615          9161.505199 

Dipole components along the rotational axes: 
x,y,z [a.u.] :    -0.637369     0.456917    -0.119274 
x,y,z [Debye]:    -1.620064     1.161390    -0.303171 

 

-------------
DIPOLE MOMENT
-------------

Method             : TDA/CIS
Type of density    : Electron Density
Level              : Relaxed density
State              :   2
Multiplicity       :   3
Irrep              :   0
Energy             :     0.0000000000000000 Eh
Relativity type    : 
Basis              : AO
                                X                 Y                 Z
Electronic contribution:      1.956143185       1.926113624       0.786166563
Nuclear contribution   :     -2.453206583      -2.403415379      -0.591776944
                        -----------------------------------------
Total Dipole Moment    :     -0.497063398      -0.477301755       0.194389618
                        -----------------------------------------
Magnitude (a.u.)       :      0.716014183
Magnitude (Debye)      :      1.819963419



--------------------
Rotational spectrum 
--------------------
 
Rotational constants in cm-1:             1.410820             0.349046             0.305595 
Rotational constants in MHz :         42295.333086         10464.122615          9161.505199 

Dipole components along the rotational axes: 
x,y,z [a.u.] :    -0.516435     0.486859    -0.094548 
x,y,z [Debye]:    -1.312674     1.237497    -0.240321 

 

Dipole moment calculation done in   0.0 sec 

Maximum memory used throughout the entire PROP-calculation: 7.4 MB
[1741611916.651066] [ohm:3547580:0]        ib_iface.c:1059 UCX  ERROR ibv_create_cq(cqe=256) failed: Connection timed out
[1741611916.655929] [ohm:3547579:0]        ib_iface.c:1059 UCX  ERROR ibv_create_cq(cqe=256) failed: Connection timed out
[1741611916.658118] [ohm:3547577:0]        ib_iface.c:1059 UCX  ERROR ibv_create_cq(cqe=256) failed: Connection timed out
[1741611916.661202] [ohm:3547578:0]        ib_iface.c:1059 UCX  ERROR ibv_create_cq(cqe=256) failed: Connection timed out
[1741611916.688665] [ohm:3547585:0]        ib_iface.c:1059 UCX  ERROR ibv_create_cq(cqe=256) failed: Connection timed out
[1741611916.693151] [ohm:3547598:0]        ib_iface.c:1059 UCX  ERROR ibv_create_cq(cqe=256) failed: Connection timed out
[1741611916.693823] [ohm:3547597:0]        ib_iface.c:1059 UCX  ERROR ibv_create_cq(cqe=256) failed: Connection timed out
[1741611916.696143] [ohm:3547581:0]        ib_iface.c:1059 UCX  ERROR ibv_create_cq(cqe=256) failed: Connection timed out
[1741611916.703394] [ohm:3547584:0]        ib_iface.c:1059 UCX  ERROR ibv_create_cq(cqe=256) failed: Connection timed out
[1741611916.728582] [ohm:3547583:0]        ib_iface.c:1059 UCX  ERROR ibv_create_cq(cqe=256) failed: Connection timed out
[1741611916.737405] [ohm:3547586:0]        ib_iface.c:1059 UCX  ERROR ibv_create_cq(cqe=256) failed: Connection timed out
[1741611916.738980] [ohm:3547604:0]        ib_iface.c:1059 UCX  ERROR ibv_create_cq(cqe=256) failed: Connection timed out
[1741611916.762892] [ohm:3547600:0]        ib_iface.c:1059 UCX  ERROR ibv_create_cq(cqe=256) failed: Connection timed out
[1741611916.780207] [ohm:3547606:0]        ib_iface.c:1059 UCX  ERROR ibv_create_cq(cqe=256) failed: Connection timed out
[1741611916.781989] [ohm:3547622:0]        ib_iface.c:1059 UCX  ERROR ibv_create_cq(cqe=256) failed: Connection timed out
[1741611916.782888] [ohm:3547626:0]        ib_iface.c:1059 UCX  ERROR ibv_create_cq(cqe=256) failed: Connection timed out
[1741611916.783757] [ohm:3547610:0]        ib_iface.c:1059 UCX  ERROR ibv_create_cq(cqe=256) failed: Connection timed out
[1741611916.786378] [ohm:3547582:0]        ib_iface.c:1059 UCX  ERROR ibv_create_cq(cqe=256) failed: Connection timed out
[1741611916.789615] [ohm:3547615:0]        ib_iface.c:1059 UCX  ERROR ibv_create_cq(cqe=256) failed: Connection timed out
[1741611916.791708] [ohm:3547602:0]        ib_iface.c:1059 UCX  ERROR ibv_create_cq(cqe=256) failed: Connection timed out
[1741611916.794418] [ohm:3547613:0]        ib_iface.c:1059 UCX  ERROR ibv_create_cq(cqe=256) failed: Connection timed out
[1741611916.798308] [ohm:3547620:0]        ib_iface.c:1059 UCX  ERROR ibv_create_cq(cqe=256) failed: Connection timed out
[1741611916.799144] [ohm:3547599:0]        ib_iface.c:1059 UCX  ERROR ibv_create_cq(cqe=256) failed: Connection timed out
[1741611916.800518] [ohm:3547617:0]        ib_iface.c:1059 UCX  ERROR ibv_create_cq(cqe=256) failed: Connection timed out
[1741611916.813568] [ohm:3547625:0]        ib_iface.c:1059 UCX  ERROR ibv_create_cq(cqe=256) failed: Connection timed out
[1741611916.813747] [ohm:3547642:0]        ib_iface.c:1059 UCX  ERROR ibv_create_cq(cqe=256) failed: Connection timed out
[1741611916.819429] [ohm:3547621:0]        ib_iface.c:1059 UCX  ERROR ibv_create_cq(cqe=256) failed: Connection timed out
[1741611916.822749] [ohm:3547618:0]        ib_iface.c:1059 UCX  ERROR ibv_create_cq(cqe=256) failed: Connection timed out
[1741611916.856051] [ohm:3547623:0]        ib_iface.c:1059 UCX  ERROR ibv_create_cq(cqe=256) failed: Connection timed out
[1741611916.868046] [ohm:3547619:0]        ib_iface.c:1059 UCX  ERROR ibv_create_cq(cqe=256) failed: Connection timed out
[1741611916.870397] [ohm:3547638:0]        ib_iface.c:1059 UCX  ERROR ibv_create_cq(cqe=256) failed: Connection timed out
[1741611916.870750] [ohm:3547624:0]        ib_iface.c:1059 UCX  ERROR ibv_create_cq(cqe=256) failed: Connection timed out
[1741611916.871115] [ohm:3547657:0]        ib_iface.c:1059 UCX  ERROR ibv_create_cq(cqe=256) failed: Connection timed out
[1741611916.876265] [ohm:3547683:0]        ib_iface.c:1059 UCX  ERROR ibv_create_cq(cqe=256) failed: Connection timed out
[1741611916.879567] [ohm:3547651:0]        ib_iface.c:1059 UCX  ERROR ibv_create_cq(cqe=256) failed: Connection timed out
[1741611916.885457] [ohm:3547679:0]        ib_iface.c:1059 UCX  ERROR ibv_create_cq(cqe=256) failed: Connection timed out
[1741611916.888265] [ohm:3547632:0]        ib_iface.c:1059 UCX  ERROR ibv_create_cq(cqe=256) failed: Connection timed out
[1741611916.890423] [ohm:3547635:0]        ib_iface.c:1059 UCX  ERROR ibv_create_cq(cqe=256) failed: Connection timed out
[1741611916.891811] [ohm:3547709:0]        ib_iface.c:1059 UCX  ERROR ibv_create_cq(cqe=256) failed: Connection timed out
[1741611916.895956] [ohm:3547629:0]        ib_iface.c:1059 UCX  ERROR ibv_create_cq(cqe=256) failed: Connection timed out
[1741611916.898737] [ohm:3547663:0]        ib_iface.c:1059 UCX  ERROR ibv_create_cq(cqe=256) failed: Connection timed out
[1741611916.910984] [ohm:3547646:0]        ib_iface.c:1059 UCX  ERROR ibv_create_cq(cqe=256) failed: Connection timed out
[1741611916.916277] [ohm:3547654:0]        ib_iface.c:1059 UCX  ERROR ibv_create_cq(cqe=256) failed: Connection timed out
[1741611916.918105] [ohm:3547676:0]        ib_iface.c:1059 UCX  ERROR ibv_create_cq(cqe=256) failed: Connection timed out
[1741611916.919948] [ohm:3547740:0]        ib_iface.c:1059 UCX  ERROR ibv_create_cq(cqe=256) failed: Connection timed out
[1741611916.921909] [ohm:3547627:0]        ib_iface.c:1059 UCX  ERROR ibv_create_cq(cqe=256) failed: Connection timed out
[1741611916.923879] [ohm:3547628:0]        ib_iface.c:1059 UCX  ERROR ibv_create_cq(cqe=256) failed: Connection timed out
[1741611916.925449] [ohm:3547728:0]        ib_iface.c:1059 UCX  ERROR ibv_create_cq(cqe=256) failed: Connection timed out
[1741611916.926421] [ohm:3547634:0]        ib_iface.c:1059 UCX  ERROR ibv_create_cq(cqe=256) failed: Connection timed out
[1741611916.928124] [ohm:3547691:0]        ib_iface.c:1059 UCX  ERROR ibv_create_cq(cqe=256) failed: Connection timed out
[1741611916.931943] [ohm:3547697:0]        ib_iface.c:1059 UCX  ERROR ibv_create_cq(cqe=256) failed: Connection timed out
[1741611916.950444] [ohm:3547668:0]        ib_iface.c:1059 UCX  ERROR ibv_create_cq(cqe=256) failed: Connection timed out
[1741611916.953949] [ohm:3547722:0]        ib_iface.c:1059 UCX  ERROR ibv_create_cq(cqe=256) failed: Connection timed out
[1741611916.954035] [ohm:3547698:0]        ib_iface.c:1059 UCX  ERROR ibv_create_cq(cqe=256) failed: Connection timed out
[1741611916.956068] [ohm:3547631:0]        ib_iface.c:1059 UCX  ERROR ibv_create_cq(cqe=256) failed: Connection timed out
[1741611916.956071] [ohm:3547713:0]        ib_iface.c:1059 UCX  ERROR ibv_create_cq(cqe=256) failed: Connection timed out
[1741611916.959702] [ohm:3547733:0]        ib_iface.c:1059 UCX  ERROR ibv_create_cq(cqe=256) failed: Connection timed out
[1741611916.962113] [ohm:3547710:0]        ib_iface.c:1059 UCX  ERROR ibv_create_cq(cqe=256) failed: Connection timed out
[1741611916.962899] [ohm:3547720:0]        ib_iface.c:1059 UCX  ERROR ibv_create_cq(cqe=256) failed: Connection timed out
[1741611916.963819] [ohm:3547737:0]        ib_iface.c:1059 UCX  ERROR ibv_create_cq(cqe=256) failed: Connection timed out
[1741611916.965102] [ohm:3547703:0]        ib_iface.c:1059 UCX  ERROR ibv_create_cq(cqe=256) failed: Connection timed out
[1741611916.965231] [ohm:3547630:0]        ib_iface.c:1059 UCX  ERROR ibv_create_cq(cqe=256) failed: Connection timed out
[1741611916.965229] [ohm:3547715:0]        ib_iface.c:1059 UCX  ERROR ibv_create_cq(cqe=256) failed: Connection timed out
[1741611916.965258] [ohm:3547734:0]        ib_iface.c:1059 UCX  ERROR ibv_create_cq(cqe=256) failed: Connection timed out

--------------------------------
SUGGESTED CITATIONS FOR THIS RUN
--------------------------------

Below you find a list of papers that are relevant to this ORCA run
We neither can nor want to force you to cite these papers, but we appreciate if you do
You receive ORCA, which is the product of decades of hard work by many enthusiastic individuals, for free
The only thing we kindly ask in return is that you cite our papers,
We deeply appreciate it, if you show your appreciation for ORCA by not just citing the generic ORCA reference.

Please note that relegating all ORCA citations to the supporting information does *not* help us.
SI sections are not indexed - citations you put there will not count into any citation statistics
But we need these citations in order to attract the funding resources that allow us to do what we are doing

Therefore, if you are a happy ORCA user, please consider citing a few of the papers listed below in the main body of your paper

In addition to the list printed below, the program has created the file orca.bibtex that contains the list in bibtex format
You can import this file easily into all common literature databanks and citation aid programs


List of essential papers. We consider these as the minimum necessary citations

  1. Neese,F.
     Software update: the ORCA program system, version 5.0
     WIRES Comput. Molec. Sci., 2022 12(1)e1606
     doi.org/10.1002/wcms.1606

List of papers to cite with high priority. The work reported in these papers was absolutely
necessary for this run to complete.
Our perspective: the developers of density functionals and basis sets usually get cited in chemistry papers
Good! But without the algorithms to do something with them, the functionals or basis sets would not do anything.
Hence, in our opinion, the algorithm design and method developments papers are equally worthy of getting cited

  1. Neese,F.; Olbrich,G.
     Efficient use of the resolution of the identity approximation in time-dependent density functional calculations with hybrid density functionals
     Chem. Phys. Lett., 2002 362 170-178
     doi.org/10.1016/s0009-2614(02)01053-9
  2. Neese,F.
     An improvement of the resolution of the identity approximation for the formation of the Coulomb matrix
     J. Comp. Chem., 2003 24(14)1740-1747
     doi.org/10.1002/jcc.10318
  3. Neese,F.; Wennmohs,F.; Hansen,A.; Becker,U.
     Efficient, approximate and parallel Hartree-Fock and hybrid DFT calculations. A 'chain-of-spheres' algorithm for the Hartree-Fock exchange
     Chem. Phys., 2009 356(1-3)98-109
     doi.org/10.1016/j.chemphys.2008.10.036
  4. Petrenko,T.; Kossmann,S.; Neese,F.
     Efficient time-dependent density functional theory approximations for hybrid density functionals: Analytical gradients and parallelization
     J. Chem. Phys., 2011 134 054116
     doi.org/10.1063/1.3533441
  5. Helmich-Paris,B.; de Souza,B.; Neese,F.; Izsák,R.
     An improved chain of spheres for exchange algorithm
     J. Chem. Phys., 2021 155 104109
     doi.org/doi: 10.1063/5.0058766.
  6. Neese,F.
     The SHARK Integral Generation and Digestion System
     J. Comp. Chem., 2022  1-16
     doi.org/10.1002/jcc.26942
  7. Lehtola,S.; Steigemann,C.; Oliveira,M.; Marques,M.
     Recent developments in Libxc - A comprehensive library of functionals for density functional theory
     Software X, 2018 7 
     doi.org/10.1016/j.softx.2017.11.002
  8. Grimme,S.; Antony,J.; Ehrlich,S.; Krieg,H.
     A consistent and accurate ab initio parametrization of density functional dispersion correction (DFT-D) for the 94 elements H-Pu
     J. Chem. Phys., 2010 132 154104-XXXX
     doi.org/10.1063/1.3382344
  9. Grimme,S.; Ehrlich,S.; Goerigk,L.
     Effect of the damping function in dispersion corrected density functional theory
     J. Comput. Chem., 2011 32(7)1456-1465
     doi.org/10.1002/jcc.21759

List of suggested additional citations. These are papers that are important in the 'surrounding' of 
of this run, or papers that preceded the highly important papers. If you like your results we are grateful for a citation.

  1. Izsak,R.; Neese,F.
     An overlap fitted chain of spheres exchange method
     J. Chem. Phys., 2011 135 144105
     doi.org/10.1063/1.3646921
  2. Izsak,R.; Hansen,A.; Neese,F.
     The resolution of identity and chain of spheres approximations for the LPNO-CCSD singles Fock term
     Molec. Phys., 2012 110 2413-2417
     doi.org/10.1080/00268976.2012.687466
  3. Neese,F.
     The ORCA program system
     WIRES Comput. Molec. Sci., 2012 2(1)73-78
     doi.org/10.1002/wcms.81
  4. Izsak,R.; Neese,F.; Klopper,W.
     Robust fitting techniques in the chain of spheres approximation to the Fock exchange: The role of the complementary space
     J. Chem. Phys., 2013 139 
     doi.org/10.1063/1.4819264
  5. Neese,F.
     Software update: the ORCA program system, version 4.0
     WIRES Comput. Molec. Sci., 2018 8(1)1-6
     doi.org/10.1002/wcms.1327
  6. Neese,F.; Wennmohs,F.; Becker,U.; Riplinger,C.
     The ORCA quantum chemistry program package
     J. Chem. Phys., 2020 152 Art. No. L224108
     doi.org/10.1063/5.0004608

List of optional additional citations

  1. Neese,F.
     Approximate second-order SCF convergence for spin unrestricted wavefunctions
     Chem. Phys. Lett., 2000 325(1-3)93-98
     doi.org/10.1016/s0009-2614(00)00662-x

Timings for individual modules:

Sum of individual times          ...       25.962 sec (=   0.433 min)
Startup calculation              ...        2.379 sec (=   0.040 min)   9.2 %
SCF iterations                   ...       11.159 sec (=   0.186 min)  43.0 %
Property integrals               ...        2.148 sec (=   0.036 min)   8.3 %
Property calculations            ...        2.058 sec (=   0.034 min)   7.9 %
CIS module                       ...        8.218 sec (=   0.137 min)  31.7 %
                             ****ORCA TERMINATED NORMALLY****
TOTAL RUN TIME: 0 days 0 hours 0 minutes 28 seconds 58 msec
