7
Properties=species:S:1:pos:R:3:momenta:R:3:forces:R:3 Coordinates=T from=T ORCA-job=T orca=T E=T -153.773453807806=T energy=-4183.6641182950125 free_energy=-4183.6641182950125 stress="-1.0513420689652984e-05 -8.129517190022513e-06 8.999258949403335e-07 -8.129517190022513e-06 -9.906836794570906e-06 -4.337153921308632e-06 8.999258949403335e-07 -4.337153921308632e-06 -6.070557845395034e-07" pbc="F F F"
O        0.55428876       1.09863009       0.27921040       0.30960500       0.16983475      -0.02199698       0.91290786       1.73394939       0.75091016
C        0.58069148      -0.20350455       0.02239025      -0.01401109      -0.51198270      -0.34588553       0.22419540      -1.75057919      -0.75990937
C       -0.76113314      -0.73199970       0.01754870      -0.41856336      -0.13130769       0.06397434      -1.63989966      -0.61023397       0.16893040
H        1.21963774      -0.81634765       0.71703067       0.07984669       0.26152268       0.11249552       0.08630616       0.82294584      -0.09076972
H        1.04829631      -0.39716834      -0.95540950       0.08950398       0.18980434       0.09737073       0.38267531       0.06887274      -0.01271658
H       -1.18732126      -1.27947419      -0.80405706      -0.03854079      -0.03558314       0.10381278       0.09933726      -0.14056903      -0.02368550
H       -1.43331035      -0.33458661       0.76501187      -0.00784043       0.05771176      -0.00977086      -0.06552234      -0.12438579      -0.03275939
