
                                 *****************
                                 * O   R   C   A *
                                 *****************

                                            #,                                       
                                            ###                                      
                                            ####                                     
                                            #####                                    
                                            ######                                   
                                           ########,                                 
                                     ,,################,,,,,                         
                               ,,#################################,,                 
                          ,,##########################################,,             
                       ,#########################################, ''#####,          
                    ,#############################################,,   '####,        
                  ,##################################################,,,,####,       
                ,###########''''           ''''###############################       
              ,#####''   ,,,,##########,,,,          '''####'''          '####       
            ,##' ,,,,###########################,,,                        '##       
           ' ,,###''''                  '''############,,,                           
         ,,##''                                '''############,,,,        ,,,,,,###''
      ,#''                                            '''#######################'''  
     '                                                          ''''####''''         
             ,#######,   #######,   ,#######,      ##                                
            ,#'     '#,  ##    ##  ,#'     '#,    #''#        ,####,   ,####,        
            ##       ##  ##   ,#'  ##            #'  '#       #'       #'  '#        
            ##       ##  #######   ##           ,######,      #####,   #    #        
            '#,     ,#'  ##    ##  '#,     ,#' ,#      #,     #,   #   #,  ,#        
             '#######'   ##     ##  '#######'  #'      '#     '####' # '####'        



                #########################################################
                #                        -***-                          #
                #          Department of theory and spectroscopy        #
                #                                                       #
                #                      Frank Neese                      #
                #                                                       #
                #     Directorship, Architecture, Infrastructure        #
                #                    SHARK, DRIVERS                     #
                #        Core code/Algorithms in most modules           #
                #                                                       #
                #        Max Planck Institute fuer Kohlenforschung      #
                #                Kaiser Wilhelm Platz 1                 #
                #                 D-45470 Muelheim/Ruhr                 #
                #                      Germany                          #
                #                                                       #
                #                  All rights reserved                  #
                #                        -***-                          #
                #########################################################


                         Program Version 6.0.0  -   RELEASE  -


 With contributions from (in alphabetic order):
   Daniel Aravena         : Magnetic Suceptibility
   Michael Atanasov       : Ab Initio Ligand Field Theory (pilot matlab implementation)
   Alexander A. Auer      : GIAO ZORA, VPT2 properties, NMR spectrum
   Ute Becker             : All parallelization in ORCA, NUMFREQ, NUMCALC
   Giovanni Bistoni       : ED, misc. LED, open-shell LED, HFLD
   Martin Brehm           : Molecular dynamics
   Dmytro Bykov           : pre 5.0 version of the SCF Hessian
   Marcos Casanova-Páez   : Triplet and SCS-CIS(D). UHF-(DLPNO)-IP/EA/STEOM-CCSD. UHF-CVS-IP/STEOM-CCSD
   Vijay G. Chilkuri      : MRCI spin determinant printing, contributions to CSF-ICE
   Pauline Colinet        : FMM embedding
   Dipayan Datta          : RHF DLPNO-CCSD density
   Achintya Kumar Dutta   : EOM-CC, STEOM-CC
   Nicolas Foglia         : Exact transition moments, OPA infrastructure, MCD improvements
   Dmitry Ganyushin       : Spin-Orbit,Spin-Spin,Magnetic field MRCI
   Miquel Garcia          : C-PCM and meta-GGA Hessian, CCSD/C-PCM, Gaussian charge scheme
   Tiago L. C. Gouveia    : GS-ROHF, GS-ROCIS
   Yang Guo               : DLPNO-NEVPT2, F12-NEVPT2, CIM, IAO-localization
   Andreas Hansen         : Spin unrestricted coupled pair/coupled cluster methods
   Ingolf Harden          : AUTO-CI MPn and infrastructure 
   Benjamin Helmich-Paris : MC-RPA, TRAH-(SCF,CASSCF), AVAS, COSX integrals, SCF dyn. polar.
   Lee Huntington         : MR-EOM, pCC
   Robert Izsak           : Overlap fitted RIJCOSX, COSX-SCS-MP3, EOM
   Riya Kayal             : Wick's Theorem for AUTO-CI, AUTO-CI UHF-CCSDT
   Emily Kempfer          : AUTO-CI, RHF CISDT and CCSDT
   Christian Kollmar      : KDIIS, OOCD, Brueckner-CCSD(T), CCSD density, CASPT2, CASPT2-K, improved NEVPT2
   Axel Koslowski         : Symmetry handling
   Simone Kossmann        : Meta GGA functionals, TD-DFT gradient, OOMP2, (MP2 Hessian; deprecated post 5.0)
   Lucas Lang             : DCDCAS
   Marvin Lechner         : AUTO-CI (C++ implementation), FIC-MRCC
   Spencer Leger          : CASSCF response
   Dagmar Lenk            : GEPOL surface, SMD, ORCA-2-JSON
   Dimitrios Liakos       : Extrapolation schemes; Compound Job, initial MDCI parallelization
   Dimitrios Manganas     : Further ROCIS development; embedding schemes. LFT, Crystal Embedding
   Dimitrios Pantazis     : SARC Basis sets
   Anastasios Papadopoulos: AUTO-CI, single reference methods and gradients
   Taras Petrenko         : pre 6.0 DFT Hessian and TD-DFT gradient, (ASA, deprecated), ECA, 1-Electron XAS/XES, NRVS
   Peter Pinski           : DLPNO-MP2, DLPNO-MP2 Gradient
   Christoph Reimann      : Effective Core Potentials
   Marius Retegan         : Local ZFS, SOC
   Christoph Riplinger    : Optimizer, TS searches, QM/MM, DLPNO-CCSD(T), (RO)-DLPNO pert. Triples
   Michael Roemelt        : Original ROCIS implementation
   Masaaki Saitow         : Open-shell DLPNO-CCSD energy and density
   Barbara Sandhoefer     : DKH picture change effects
   Kantharuban Sivalingam : CASSCF convergence/infrastructure, NEVPT2 and variants, FIC-MRCI
   Bernardo de Souza      : ESD, SOC TD-DFT
   Georgi Stoychev        : AutoAux, RI-MP2 NMR, DLPNO-MP2 response, X2C
   Van Anh Tran           : RI-MP2 g-tensors
   Willem Van den Heuvel  : Paramagnetic NMR
   Zikuan Wang            : NOTCH, Electric field optimization 
   Frank Wennmohs         : Technical directorship and infrastructure
   Hang Xu                : AUTO-CI-Response properties 


 We gratefully acknowledge several colleagues who have allowed us to
 interface, adapt or use parts of their codes:
   Stefan Grimme, W. Hujo, H. Kruse, P. Pracht,  : VdW corrections, initial TS optimization,
                  C. Bannwarth, S. Ehlert,         DFT functionals, gCP, sTDA/sTD-DF
                  L. Wittmann, M. Mueller
   Ed Valeev, F. Pavosevic, A. Kumar             : LibInt (2-el integral package), F12 methods
   Garnet Chan, S. Sharma, J. Yang, R. Olivares  : DMRG
   Ulf Ekstrom                                   : XCFun DFT Library
   Mihaly Kallay                                 : mrcc  (arbitrary order and MRCC methods)
   Frank Weinhold                                : gennbo (NPA and NBO analysis)
   Simon Mueller                                 : openCOSMO-RS
   Christopher J. Cramer and Donald G. Truhlar   : smd solvation model
   Lars Goerigk                                  : TD-DFT with DH, B97 family of functionals
   V. Asgeirsson, H. Jonsson                     : NEB implementation
   FAccTs GmbH                                   : IRC, NEB, NEB-TS, DLPNO-Multilevel, CI-OPT
                                                   MM, QMMM, 2- and 3-layer-ONIOM, Crystal-QMMM,
                                                   LR-CPCM, SF, NACMEs, symmetry and pop. for TD-DFT,
                                                   nearIR, NL-DFT gradient (VV10), updates on ESD,
                                                   ML-optimized integration grids, MBIS, APM,
                                                   GOAT, DOCKER, SOLVATOR, interface openCOSMO-RS
   S Lehtola, MJT Oliveira, MAL Marques          : LibXC Library
   Liviu Ungur et al                             : ANISO software


 Your calculation uses the libint2 library for the computation of 2-el integrals
 For citations please refer to: http://libint.valeyev.net

 Your ORCA version has been built with support for libXC version: 6.2.2
 For citations please refer to: https://libxc.gitlab.io

 This ORCA versions uses:
   CBLAS   interface :  Fast vector & matrix operations
   LAPACKE interface :  Fast linear algebra routines
   SCALAPACK package :  Parallel linear algebra routines
   Shared memory     :  Shared parallel matrices
   BLAS/LAPACK       :  OpenBLAS 0.3.27  USE64BITINT DYNAMIC_ARCH NO_AFFINITY Zen SINGLE_THREADED
        Core in use  :  Zen
   Copyright (c) 2011-2014, The OpenBLAS Project


Your calculation utilizes the atom-pairwise dispersion correction
with the Becke-Johnson damping scheme (D3BJ)


Warning: RI is on but no J-basis has been assigned. Assigning Def2/J (nothing to worry about!)
================================================================================

----- Orbital basis set information -----
Your calculation utilizes the basis: def2-TZVPPD
   F. Weigend and R. Ahlrichs, Phys. Chem. Chem. Phys. 7, 3297 (2005).
   D. Rappoport and F. Furche, J. Chem. Phys. 133, 134105 (2010)
   D. Rappoport, J. Chem. Phys. 155, 124102 (2021).

----- AuxJ basis set information -----
Your calculation utilizes the auxiliary basis: def2/J
   F. Weigend, Phys. Chem. Chem. Phys. 8, 1057 (2006).

================================================================================
                                        WARNINGS
                       Please study these warnings very carefully!
================================================================================

Using LibXC functional ID 531 : wB97M-V exchange-correlation functional
[ 1]  N. Mardirossian and M. Head-Gordon.,  J. Chem. Phys. 144, 214110 (2016)
Using LibXC functional ID 531 : wB97M-V exchange-correlation functional
[ 1]  N. Mardirossian and M. Head-Gordon.,  J. Chem. Phys. 144, 214110 (2016)

WARNING: B97M-V or wB97M-V functional requested.
  ===> : libXC variant has now been activated.
         Any manually given DFX/HFX/RangeSep scaling parameters are IGNORED!

Your calculation utilizes LibXC
 by S Lehtola, C Steigemann, MJT Oliveira & MAL Marques
Please cite in your paper:
 S Lehtola, C Steigemann, MJT Oliveira & MAL Marques, SoftwareX, 7, (2018), 1.
   


WARNING: your system is open-shell and RHF/RKS was chosen
  ===> : WILL SWITCH to UHF/UKS

INFO   : Checking CIS options ...

WARNING: CIS/ROCIS methods need fully converged wavefunctions
  ===> : Setting SCFConvForced true
         You can overwrite this default with %scf ConvForced false 


================================================================================
                                       INPUT FILE
================================================================================
NAME = orca.inp
|  1> ! Engrad def2-TZVPPD wB97M-D3BJ 
|  2> %pal nprocs 8 end%pal nprocs 64 end 
|  3> %tddft 
|  4>  Iroot 2 Nroots 3 
|  5> sf true 
|  6> end 
|  7> *xyz 0 3 
|  8> O   1.21190176 -0.81042039 0.27344327
|  9> C   0.57253333 0.40929643 0.34928023
| 10> C   -0.67810549 0.64102085 -0.45427722
| 11> H   1.30769907 1.14834915 0.21461554
| 12> H   0.28619308 0.5367062 1.41650268
| 13> H   -1.61240455 0.60095243 -0.04341322
| 14> H   -0.57317097 0.90614114 -1.53330732
| 15> *
| 16> 
| 17>                          ****END OF INPUT****
================================================================================

                     *******************************
                     * Energy+Gradient Calculation *
                     *******************************

---------------------------------
CARTESIAN COORDINATES (ANGSTROEM)
---------------------------------
  O      1.211902   -0.810420    0.273443
  C      0.572533    0.409296    0.349280
  C     -0.678105    0.641021   -0.454277
  H      1.307699    1.148349    0.214616
  H      0.286193    0.536706    1.416503
  H     -1.612405    0.600952   -0.043413
  H     -0.573171    0.906141   -1.533307

----------------------------
CARTESIAN COORDINATES (A.U.)
----------------------------
  NO LB      ZA    FRAG     MASS         X           Y           Z
   0 O     8.0000    0    15.999    2.290162   -1.531473    0.516733
   1 C     6.0000    0    12.011    1.081931    0.773458    0.660044
   2 C     6.0000    0    12.011   -1.281434    1.211354   -0.858460
   3 H     1.0000    0     1.008    2.471193    2.170065    0.405565
   4 H     1.0000    0     1.008    0.540827    1.014228    2.676802
   5 H     1.0000    0     1.008   -3.047003    1.135636   -0.082039
   6 H     1.0000    0     1.008   -1.083136    1.712359   -2.897531

--------------------------------
INTERNAL COORDINATES (ANGSTROEM)
--------------------------------
 O      0   0   0     0.000000000000     0.00000000     0.00000000
 C      1   0   0     1.379221648167     0.00000000     0.00000000
 C      2   1   0     1.504492685381   119.48492186     0.00000000
 H      2   1   3     1.051095698280   106.88973556   228.88785876
 H      2   1   3     1.112289416494   105.86647218   119.74190535
 H      3   2   1     1.021434989754   122.64788082   101.48397036
 H      3   2   1     1.116067192584   118.34704881   279.03970283

---------------------------
INTERNAL COORDINATES (A.U.)
---------------------------
 O      0   0   0     0.000000000000     0.00000000     0.00000000
 C      1   0   0     2.606351193012     0.00000000     0.00000000
 C      2   1   0     2.843079145858   119.48492186     0.00000000
 H      2   1   3     1.986283010291   106.88973556   228.88785876
 H      2   1   3     2.101922378834   105.86647218   119.74190535
 H      3   2   1     1.930232394240   122.64788082   101.48397036
 H      3   2   1     2.109061341039   118.34704881   279.03970283

---------------------
BASIS SET INFORMATION
---------------------
There are 3 groups of distinct atoms

 Group   1 Type O   : 12s7p3d1f contracted to 6s4p3d1f pattern {621111/4111/111/1}
 Group   2 Type C   : 12s6p3d1f contracted to 6s3p3d1f pattern {621111/411/111/1}
 Group   3 Type H   : 5s3p1d contracted to 3s3p1d pattern {311/111/1}

Atom   0O    basis set group =>   1
Atom   1C    basis set group =>   2
Atom   2C    basis set group =>   2
Atom   3H    basis set group =>   3
Atom   4H    basis set group =>   3
Atom   5H    basis set group =>   3
Atom   6H    basis set group =>   3
---------------------------------
AUXILIARY/J BASIS SET INFORMATION
---------------------------------
There are 3 groups of distinct atoms

 Group   1 Type O   : 12s5p4d2f1g contracted to 6s4p3d1f1g pattern {711111/2111/211/2/1}
 Group   2 Type C   : 12s5p4d2f1g contracted to 6s4p3d1f1g pattern {711111/2111/211/2/1}
 Group   3 Type H   : 5s2p1d contracted to 3s1p1d pattern {311/2/1}

Atom   0O    basis set group =>   1
Atom   1C    basis set group =>   2
Atom   2C    basis set group =>   2
Atom   3H    basis set group =>   3
Atom   4H    basis set group =>   3
Atom   5H    basis set group =>   3
Atom   6H    basis set group =>   3
[1741611084.351125] [ohm:3471201:0]        ib_iface.c:1059 UCX  ERROR ibv_create_cq(cqe=256) failed: Connection timed out
[1741611084.352498] [ohm:3471203:0]        ib_iface.c:1059 UCX  ERROR ibv_create_cq(cqe=256) failed: Connection timed out
[1741611084.352837] [ohm:3471202:0]        ib_iface.c:1059 UCX  ERROR ibv_create_cq(cqe=256) failed: Connection timed out
[1741611084.354318] [ohm:3471200:0]        ib_iface.c:1059 UCX  ERROR ibv_create_cq(cqe=256) failed: Connection timed out
[1741611084.357933] [ohm:3471225:0]        ib_iface.c:1059 UCX  ERROR ibv_create_cq(cqe=256) failed: Connection timed out
[1741611084.359012] [ohm:3471206:0]        ib_iface.c:1059 UCX  ERROR ibv_create_cq(cqe=256) failed: Connection timed out
[1741611084.370954] [ohm:3471205:0]        ib_iface.c:1059 UCX  ERROR ibv_create_cq(cqe=256) failed: Connection timed out
[1741611084.372147] [ohm:3471232:0]        ib_iface.c:1059 UCX  ERROR ibv_create_cq(cqe=256) failed: Connection timed out
[1741611084.378065] [ohm:3471207:0]        ib_iface.c:1059 UCX  ERROR ibv_create_cq(cqe=256) failed: Connection timed out
[1741611084.384163] [ohm:3471212:0]        ib_iface.c:1059 UCX  ERROR ibv_create_cq(cqe=256) failed: Connection timed out
[1741611084.413786] [ohm:3471226:0]        ib_iface.c:1059 UCX  ERROR ibv_create_cq(cqe=256) failed: Connection timed out
[1741611084.417171] [ohm:3471243:0]        ib_iface.c:1059 UCX  ERROR ibv_create_cq(cqe=256) failed: Connection timed out
[1741611084.418701] [ohm:3471204:0]        ib_iface.c:1059 UCX  ERROR ibv_create_cq(cqe=256) failed: Connection timed out
[1741611084.419863] [ohm:3471224:0]        ib_iface.c:1059 UCX  ERROR ibv_create_cq(cqe=256) failed: Connection timed out
[1741611084.424034] [ohm:3471236:0]        ib_iface.c:1059 UCX  ERROR ibv_create_cq(cqe=256) failed: Connection timed out
[1741611084.428096] [ohm:3471251:0]        ib_iface.c:1059 UCX  ERROR ibv_create_cq(cqe=256) failed: Connection timed out
[1741611084.431821] [ohm:3471209:0]        ib_iface.c:1059 UCX  ERROR ibv_create_cq(cqe=256) failed: Connection timed out
[1741611084.434237] [ohm:3471228:0]        ib_iface.c:1059 UCX  ERROR ibv_create_cq(cqe=256) failed: Connection timed out
[1741611084.435065] [ohm:3471223:0]        ib_iface.c:1059 UCX  ERROR ibv_create_cq(cqe=256) failed: Connection timed out
[1741611084.451095] [ohm:3471246:0]        ib_iface.c:1059 UCX  ERROR ibv_create_cq(cqe=256) failed: Connection timed out
[1741611084.504941] [ohm:3471253:0]        ib_iface.c:1059 UCX  ERROR ibv_create_cq(cqe=256) failed: Connection timed out
[1741611084.523101] [ohm:3471268:0]        ib_iface.c:1059 UCX  ERROR ibv_create_cq(cqe=256) failed: Connection timed out
[1741611084.523558] [ohm:3471238:0]        ib_iface.c:1059 UCX  ERROR ibv_create_cq(cqe=256) failed: Connection timed out
[1741611084.523558] [ohm:3471298:0]        ib_iface.c:1059 UCX  ERROR ibv_create_cq(cqe=256) failed: Connection timed out
[1741611084.535649] [ohm:3471254:0]        ib_iface.c:1059 UCX  ERROR ibv_create_cq(cqe=256) failed: Connection timed out
[1741611084.543861] [ohm:3471255:0]        ib_iface.c:1059 UCX  ERROR ibv_create_cq(cqe=256) failed: Connection timed out
[1741611084.547238] [ohm:3471259:0]        ib_iface.c:1059 UCX  ERROR ibv_create_cq(cqe=256) failed: Connection timed out
[1741611084.552801] [ohm:3471266:0]        ib_iface.c:1059 UCX  ERROR ibv_create_cq(cqe=256) failed: Connection timed out
[1741611084.567847] [ohm:3471248:0]        ib_iface.c:1059 UCX  ERROR ibv_create_cq(cqe=256) failed: Connection timed out
[1741611084.572979] [ohm:3471208:0]        ib_iface.c:1059 UCX  ERROR ibv_create_cq(cqe=256) failed: Connection timed out
[1741611084.576442] [ohm:3471261:0]        ib_iface.c:1059 UCX  ERROR ibv_create_cq(cqe=256) failed: Connection timed out
[1741611084.577521] [ohm:3471252:0]        ib_iface.c:1059 UCX  ERROR ibv_create_cq(cqe=256) failed: Connection timed out
[1741611084.587039] [ohm:3471257:0]        ib_iface.c:1059 UCX  ERROR ibv_create_cq(cqe=256) failed: Connection timed out
[1741611084.587486] [ohm:3471300:0]        ib_iface.c:1059 UCX  ERROR ibv_create_cq(cqe=256) failed: Connection timed out
[1741611084.587656] [ohm:3471339:0]        ib_iface.c:1059 UCX  ERROR ibv_create_cq(cqe=256) failed: Connection timed out
[1741611084.593064] [ohm:3471231:0]        ib_iface.c:1059 UCX  ERROR ibv_create_cq(cqe=256) failed: Connection timed out
[1741611084.602318] [ohm:3471293:0]        ib_iface.c:1059 UCX  ERROR ibv_create_cq(cqe=256) failed: Connection timed out
[1741611084.609404] [ohm:3471211:0]        ib_iface.c:1059 UCX  ERROR ibv_create_cq(cqe=256) failed: Connection timed out
[1741611084.612352] [ohm:3471336:0]        ib_iface.c:1059 UCX  ERROR ibv_create_cq(cqe=256) failed: Connection timed out
[1741611084.612453] [ohm:3471285:0]        ib_iface.c:1059 UCX  ERROR ibv_create_cq(cqe=256) failed: Connection timed out
[1741611084.613822] [ohm:3471258:0]        ib_iface.c:1059 UCX  ERROR ibv_create_cq(cqe=256) failed: Connection timed out
[1741611084.619256] [ohm:3471260:0]        ib_iface.c:1059 UCX  ERROR ibv_create_cq(cqe=256) failed: Connection timed out
[1741611084.625055] [ohm:3471280:0]        ib_iface.c:1059 UCX  ERROR ibv_create_cq(cqe=256) failed: Connection timed out
[1741611084.625172] [ohm:3471288:0]        ib_iface.c:1059 UCX  ERROR ibv_create_cq(cqe=256) failed: Connection timed out
[1741611084.642373] [ohm:3471310:0]        ib_iface.c:1059 UCX  ERROR ibv_create_cq(cqe=256) failed: Connection timed out
[1741611084.645116] [ohm:3471279:0]        ib_iface.c:1059 UCX  ERROR ibv_create_cq(cqe=256) failed: Connection timed out
[1741611084.645462] [ohm:3471210:0]        ib_iface.c:1059 UCX  ERROR ibv_create_cq(cqe=256) failed: Connection timed out
[1741611084.648002] [ohm:3471275:0]        ib_iface.c:1059 UCX  ERROR ibv_create_cq(cqe=256) failed: Connection timed out
[1741611084.652084] [ohm:3471330:0]        ib_iface.c:1059 UCX  ERROR ibv_create_cq(cqe=256) failed: Connection timed out
[1741611084.653711] [ohm:3471309:0]        ib_iface.c:1059 UCX  ERROR ibv_create_cq(cqe=256) failed: Connection timed out
[1741611084.654983] [ohm:3471337:0]        ib_iface.c:1059 UCX  ERROR ibv_create_cq(cqe=256) failed: Connection timed out
[1741611084.655258] [ohm:3471256:0]        ib_iface.c:1059 UCX  ERROR ibv_create_cq(cqe=256) failed: Connection timed out
[1741611084.658360] [ohm:3471304:0]        ib_iface.c:1059 UCX  ERROR ibv_create_cq(cqe=256) failed: Connection timed out
[1741611084.662425] [ohm:3471316:0]        ib_iface.c:1059 UCX  ERROR ibv_create_cq(cqe=256) failed: Connection timed out
[1741611084.665072] [ohm:3471338:0]        ib_iface.c:1059 UCX  ERROR ibv_create_cq(cqe=256) failed: Connection timed out
[1741611084.667162] [ohm:3471324:0]        ib_iface.c:1059 UCX  ERROR ibv_create_cq(cqe=256) failed: Connection timed out
[1741611084.667274] [ohm:3471332:0]        ib_iface.c:1059 UCX  ERROR ibv_create_cq(cqe=256) failed: Connection timed out
[1741611084.668651] [ohm:3471343:0]        ib_iface.c:1059 UCX  ERROR ibv_create_cq(cqe=256) failed: Connection timed out
[1741611084.668809] [ohm:3471345:0]        ib_iface.c:1059 UCX  ERROR ibv_create_cq(cqe=256) failed: Connection timed out
[1741611084.670611] [ohm:3471290:0]        ib_iface.c:1059 UCX  ERROR ibv_create_cq(cqe=256) failed: Connection timed out
[1741611084.670743] [ohm:3471271:0]        ib_iface.c:1059 UCX  ERROR ibv_create_cq(cqe=256) failed: Connection timed out
[1741611084.672098] [ohm:3471334:0]        ib_iface.c:1059 UCX  ERROR ibv_create_cq(cqe=256) failed: Connection timed out
[1741611084.672663] [ohm:3471319:0]        ib_iface.c:1059 UCX  ERROR ibv_create_cq(cqe=256) failed: Connection timed out
[1741611084.673998] [ohm:3471262:0]        ib_iface.c:1059 UCX  ERROR ibv_create_cq(cqe=256) failed: Connection timed out


           ************************************************************
           *        Program running with 64 parallel MPI-processes    *
           *              working on a common directory               *
           ************************************************************
------------------------------------------------------------------------------
                             ORCA STARTUP CALCULATIONS
                           -- RI-GTO INTEGRALS CHOSEN --
------------------------------------------------------------------------------
------------------------------------------------------------------------------
                   ___                                                        
                  /   \      - P O W E R E D   B Y -                         
                 /     \                                                     
                 |  |  |   _    _      __       _____    __    __             
                 |  |  |  | |  | |    /  \     |  _  \  |  |  /  |          
                  \  \/   | |  | |   /    \    | | | |  |  | /  /          
                 / \  \   | |__| |  /  /\  \   | |_| |  |  |/  /          
                |  |  |   |  __  | /  /__\  \  |    /   |      \           
                |  |  |   | |  | | |   __   |  |    \   |  |\   \          
                \     /   | |  | | |  |  |  |  | |\  \  |  | \   \       
                 \___/    |_|  |_| |__|  |__|  |_| \__\ |__|  \__/        
                                                                              
                      - O R C A' S   B I G   F R I E N D -                    
                                      &                                       
                       - I N T E G R A L  F E E D E R -                       
                                                                              
 v1 FN, 2020, v2 2021, v3 2022-2024                                           
------------------------------------------------------------------------------


----------------------
SHARK INTEGRAL PACKAGE
----------------------

Number of atoms                             ...      7
Number of basis functions                   ...    182
Number of shells                            ...     68
Maximum angular momentum                    ...      3
Integral batch strategy                     ... SHARK/LIBINT Hybrid
RI-J (if used) integral strategy            ... SPLIT-RIJ (Revised 2003 algorithm where possible)
Printlevel                                  ...      1
Contraction scheme used                     ... SEGMENTED contraction
Prescreening option                         ... SCHWARTZ
   Thresh                                   ... 2.500e-11
   Tcut                                     ... 2.500e-12
   Tpresel                                  ... 2.500e-12 
Coulomb Range Separation                    ... NOT USED
Exchange Range Separation                   ... Long Range
   Mu parameter                             ... 3.000e-01
   Scaling (regular/separated)              ... 1.500e-01 8.500e-01
Multipole approximations                    ... NOT USED
Finite Nucleus Model                        ... NOT USED
CABS basis                                  ... NOT available
Auxiliary Coulomb fitting basis             ... AVAILABLE
   # of basis functions in Aux-J            ...    191
   # of shells in Aux-J                     ...     65
   Maximum angular momentum in Aux-J        ...      4
Auxiliary J/K fitting basis                 ... NOT available
Auxiliary Correlation fitting basis         ... NOT available
Auxiliary 'external' fitting basis          ... NOT available

Checking pre-screening integrals            ... done (  0.0 sec) Dimension = 68
Check shell pair data                       ... done (  0.0 sec)
Shell pair information
Shell pair cut-off parameter TPreSel        ...   2.5e-12
Total number of shell pairs                 ...      2346
Shell pairs after pre-screening             ...      2326
Total number of primitive shell pairs       ...      5434
Primitive shell pairs kept                  ...      4801
          la=0 lb=0:    455 shell pairs
          la=1 lb=0:    655 shell pairs
          la=1 lb=1:    253 shell pairs
          la=2 lb=0:    385 shell pairs
          la=2 lb=1:    286 shell pairs
          la=2 lb=2:     91 shell pairs
          la=3 lb=0:     90 shell pairs
          la=3 lb=1:     66 shell pairs
          la=3 lb=2:     39 shell pairs
          la=3 lb=3:      6 shell pairs

Calculating one electron integrals          ... done (  0.0 sec)
Calculating RI/J V-Matrix + Cholesky decomp.... done (  0.0 sec)
Calculating Nuclear repulsion               ... done (  0.0 sec) ENN=     67.281291894565 Eh

Diagonalization of the overlap matrix:
Smallest eigenvalue                        ... 1.981e-05
Time for diagonalization                   ...    0.004 sec
Threshold for overlap eigenvalues          ... 1.000e-07
Number of eigenvalues below threshold      ... 0
Time for construction of square roots      ...    0.004 sec
Total time needed                          ...    0.009 sec

-------------------
DFT GRID GENERATION
-------------------

General Integration Accuracy     IntAcc      ... 4.388
Radial Grid Type                 RadialGrid  ... OptM3 with GC (2021)
Angular Grid (max. ang.)         AngularGrid ... 4 (Lebedev-302)
Angular grid pruning method      GridPruning ... 4 (adaptive)
Weight generation scheme         WeightScheme... mBecke (2022)
Basis function cutoff            BFCut       ... 1.0000e-11
Integration weight cutoff        WCut        ... 1.0000e-14
Partially contracted basis set               ... off
Rotationally invariant grid construction     ... off
Angular grids for H and He will be reduced by one unit
Diffuse basis detected: some atoms will have their outermost
                        angular grid increased by 1.

Total number of grid points                  ...    33134
Total number of batches                      ...      522
Average number of points per batch           ...       63
Average number of grid points per atom       ...     4733

--------------------
COSX GRID GENERATION
--------------------

GRIDX 1
-------
General Integration Accuracy     IntAcc      ... 3.816
Radial Grid Type                 RadialGrid  ... OptM3 with GC (2021)
Angular Grid (max. ang.)         AngularGrid ... 1 (Lebedev-50)
Angular grid pruning method      GridPruning ... 4 (adaptive)
Weight generation scheme         WeightScheme... mBecke (2022)
Basis function cutoff            BFCut       ... 1.0000e-11
Integration weight cutoff        WCut        ... 1.0000e-14
Partially contracted basis set               ... on
Rotationally invariant grid construction     ... off
Angular grids for H and He will be reduced by one unit
Diffuse basis detected: some atoms will have their outermost
                        angular grid increased by 1.

Total number of grid points                  ...     4175
Total number of batches                      ...       36
Average number of points per batch           ...      115
Average number of grid points per atom       ...      596
UseSFitting                                  ... on

GRIDX 2
-------
General Integration Accuracy     IntAcc      ... 4.020
Radial Grid Type                 RadialGrid  ... OptM3 with GC (2021)
Angular Grid (max. ang.)         AngularGrid ... 2 (Lebedev-110)
Angular grid pruning method      GridPruning ... 4 (adaptive)
Weight generation scheme         WeightScheme... mBecke (2022)
Basis function cutoff            BFCut       ... 1.0000e-11
Integration weight cutoff        WCut        ... 1.0000e-14
Partially contracted basis set               ... on
Rotationally invariant grid construction     ... off
Angular grids for H and He will be reduced by one unit
Diffuse basis detected: some atoms will have their outermost
                        angular grid increased by 1.

Total number of grid points                  ...    10253
Total number of batches                      ...       82
Average number of points per batch           ...      125
Average number of grid points per atom       ...     1465
UseSFitting                                  ... on

GRIDX 3
-------
General Integration Accuracy     IntAcc      ... 4.338
Radial Grid Type                 RadialGrid  ... OptM3 with GC (2021)
Angular Grid (max. ang.)         AngularGrid ... 3 (Lebedev-194)
Angular grid pruning method      GridPruning ... 4 (adaptive)
Weight generation scheme         WeightScheme... mBecke (2022)
Basis function cutoff            BFCut       ... 1.0000e-11
Integration weight cutoff        WCut        ... 1.0000e-14
Partially contracted basis set               ... on
Rotationally invariant grid construction     ... off
Angular grids for H and He will be reduced by one unit
Diffuse basis detected: some atoms will have their outermost
                        angular grid increased by 1.

Total number of grid points                  ...    23141
Total number of batches                      ...      185
Average number of points per batch           ...      125
Average number of grid points per atom       ...     3306
UseSFitting                                  ... on
Initializing property integral containers    ... done (  0.0 sec)

SHARK setup successfully completed in   0.4 seconds

Maximum memory used throughout the entire STARTUP-calculation: 13.8 MB
[1741611086.763906] [ohm:3471548:0]        ib_iface.c:1059 UCX  ERROR ibv_create_cq(cqe=256) failed: Connection timed out
[1741611086.769436] [ohm:3471560:0]        ib_iface.c:1059 UCX  ERROR ibv_create_cq(cqe=256) failed: Connection timed out
[1741611086.784888] [ohm:3471547:0]        ib_iface.c:1059 UCX  ERROR ibv_create_cq(cqe=256) failed: Connection timed out
[1741611086.788767] [ohm:3471556:0]        ib_iface.c:1059 UCX  ERROR ibv_create_cq(cqe=256) failed: Connection timed out
[1741611086.830829] [ohm:3471597:0]        ib_iface.c:1059 UCX  ERROR ibv_create_cq(cqe=256) failed: Connection timed out
[1741611086.838646] [ohm:3471551:0]        ib_iface.c:1059 UCX  ERROR ibv_create_cq(cqe=256) failed: Connection timed out
[1741611086.844219] [ohm:3471554:0]        ib_iface.c:1059 UCX  ERROR ibv_create_cq(cqe=256) failed: Connection timed out
[1741611086.845647] [ohm:3471553:0]        ib_iface.c:1059 UCX  ERROR ibv_create_cq(cqe=256) failed: Connection timed out
[1741611086.846789] [ohm:3471550:0]        ib_iface.c:1059 UCX  ERROR ibv_create_cq(cqe=256) failed: Connection timed out
[1741611086.849348] [ohm:3471555:0]        ib_iface.c:1059 UCX  ERROR ibv_create_cq(cqe=256) failed: Connection timed out
[1741611086.850683] [ohm:3471564:0]        ib_iface.c:1059 UCX  ERROR ibv_create_cq(cqe=256) failed: Connection timed out
[1741611086.860190] [ohm:3471549:0]        ib_iface.c:1059 UCX  ERROR ibv_create_cq(cqe=256) failed: Connection timed out
[1741611086.865365] [ohm:3471617:0]        ib_iface.c:1059 UCX  ERROR ibv_create_cq(cqe=256) failed: Connection timed out
[1741611086.871288] [ohm:3471578:0]        ib_iface.c:1059 UCX  ERROR ibv_create_cq(cqe=256) failed: Connection timed out
[1741611086.877171] [ohm:3471658:0]        ib_iface.c:1059 UCX  ERROR ibv_create_cq(cqe=256) failed: Connection timed out
[1741611086.882479] [ohm:3471607:0]        ib_iface.c:1059 UCX  ERROR ibv_create_cq(cqe=256) failed: Connection timed out
[1741611086.882701] [ohm:3471674:0]        ib_iface.c:1059 UCX  ERROR ibv_create_cq(cqe=256) failed: Connection timed out
[1741611086.895094] [ohm:3471557:0]        ib_iface.c:1059 UCX  ERROR ibv_create_cq(cqe=256) failed: Connection timed out
[1741611086.898630] [ohm:3471643:0]        ib_iface.c:1059 UCX  ERROR ibv_create_cq(cqe=256) failed: Connection timed out
[1741611086.941928] [ohm:3471661:0]        ib_iface.c:1059 UCX  ERROR ibv_create_cq(cqe=256) failed: Connection timed out
[1741611086.945999] [ohm:3471669:0]        ib_iface.c:1059 UCX  ERROR ibv_create_cq(cqe=256) failed: Connection timed out
[1741611086.955278] [ohm:3471678:0]        ib_iface.c:1059 UCX  ERROR ibv_create_cq(cqe=256) failed: Connection timed out
[1741611086.963828] [ohm:3471581:0]        ib_iface.c:1059 UCX  ERROR ibv_create_cq(cqe=256) failed: Connection timed out
[1741611086.964260] [ohm:3471600:0]        ib_iface.c:1059 UCX  ERROR ibv_create_cq(cqe=256) failed: Connection timed out
[1741611086.964371] [ohm:3471593:0]        ib_iface.c:1059 UCX  ERROR ibv_create_cq(cqe=256) failed: Connection timed out
[1741611086.991726] [ohm:3471652:0]        ib_iface.c:1059 UCX  ERROR ibv_create_cq(cqe=256) failed: Connection timed out
[1741611086.991719] [ohm:3471552:0]        ib_iface.c:1059 UCX  ERROR ibv_create_cq(cqe=256) failed: Connection timed out
[1741611086.999304] [ohm:3471559:0]        ib_iface.c:1059 UCX  ERROR ibv_create_cq(cqe=256) failed: Connection timed out
[1741611086.999310] [ohm:3471604:0]        ib_iface.c:1059 UCX  ERROR ibv_create_cq(cqe=256) failed: Connection timed out
[1741611086.999521] [ohm:3471612:0]        ib_iface.c:1059 UCX  ERROR ibv_create_cq(cqe=256) failed: Connection timed out
[1741611086.999831] [ohm:3471579:0]        ib_iface.c:1059 UCX  ERROR ibv_create_cq(cqe=256) failed: Connection timed out
[1741611087.003547] [ohm:3471609:0]        ib_iface.c:1059 UCX  ERROR ibv_create_cq(cqe=256) failed: Connection timed out
[1741611087.014059] [ohm:3471681:0]        ib_iface.c:1059 UCX  ERROR ibv_create_cq(cqe=256) failed: Connection timed out
[1741611087.015786] [ohm:3471667:0]        ib_iface.c:1059 UCX  ERROR ibv_create_cq(cqe=256) failed: Connection timed out
[1741611087.022349] [ohm:3471613:0]        ib_iface.c:1059 UCX  ERROR ibv_create_cq(cqe=256) failed: Connection timed out
[1741611087.025172] [ohm:3471610:0]        ib_iface.c:1059 UCX  ERROR ibv_create_cq(cqe=256) failed: Connection timed out
[1741611087.029089] [ohm:3471567:0]        ib_iface.c:1059 UCX  ERROR ibv_create_cq(cqe=256) failed: Connection timed out
[1741611087.040228] [ohm:3471580:0]        ib_iface.c:1059 UCX  ERROR ibv_create_cq(cqe=256) failed: Connection timed out
[1741611087.040298] [ohm:3471693:0]        ib_iface.c:1059 UCX  ERROR ibv_create_cq(cqe=256) failed: Connection timed out
[1741611087.041845] [ohm:3471637:0]        ib_iface.c:1059 UCX  ERROR ibv_create_cq(cqe=256) failed: Connection timed out
[1741611087.042695] [ohm:3471622:0]        ib_iface.c:1059 UCX  ERROR ibv_create_cq(cqe=256) failed: Connection timed out
[1741611087.043862] [ohm:3471697:0]        ib_iface.c:1059 UCX  ERROR ibv_create_cq(cqe=256) failed: Connection timed out
[1741611087.048714] [ohm:3471611:0]        ib_iface.c:1059 UCX  ERROR ibv_create_cq(cqe=256) failed: Connection timed out
[1741611087.048955] [ohm:3471558:0]        ib_iface.c:1059 UCX  ERROR ibv_create_cq(cqe=256) failed: Connection timed out
[1741611087.058332] [ohm:3471631:0]        ib_iface.c:1059 UCX  ERROR ibv_create_cq(cqe=256) failed: Connection timed out
[1741611087.060440] [ohm:3471688:0]        ib_iface.c:1059 UCX  ERROR ibv_create_cq(cqe=256) failed: Connection timed out
[1741611087.062654] [ohm:3471615:0]        ib_iface.c:1059 UCX  ERROR ibv_create_cq(cqe=256) failed: Connection timed out
[1741611087.063924] [ohm:3471614:0]        ib_iface.c:1059 UCX  ERROR ibv_create_cq(cqe=256) failed: Connection timed out
[1741611087.065304] [ohm:3471654:0]        ib_iface.c:1059 UCX  ERROR ibv_create_cq(cqe=256) failed: Connection timed out
[1741611087.065394] [ohm:3471627:0]        ib_iface.c:1059 UCX  ERROR ibv_create_cq(cqe=256) failed: Connection timed out
[1741611087.072168] [ohm:3471608:0]        ib_iface.c:1059 UCX  ERROR ibv_create_cq(cqe=256) failed: Connection timed out
[1741611087.072166] [ohm:3471621:0]        ib_iface.c:1059 UCX  ERROR ibv_create_cq(cqe=256) failed: Connection timed out
[1741611087.072185] [ohm:3471632:0]        ib_iface.c:1059 UCX  ERROR ibv_create_cq(cqe=256) failed: Connection timed out
[1741611087.084844] [ohm:3471618:0]        ib_iface.c:1059 UCX  ERROR ibv_create_cq(cqe=256) failed: Connection timed out
[1741611087.087911] [ohm:3471640:0]        ib_iface.c:1059 UCX  ERROR ibv_create_cq(cqe=256) failed: Connection timed out
[1741611087.088031] [ohm:3471587:0]        ib_iface.c:1059 UCX  ERROR ibv_create_cq(cqe=256) failed: Connection timed out
[1741611087.095656] [ohm:3471648:0]        ib_iface.c:1059 UCX  ERROR ibv_create_cq(cqe=256) failed: Connection timed out
[1741611087.095800] [ohm:3471619:0]        ib_iface.c:1059 UCX  ERROR ibv_create_cq(cqe=256) failed: Connection timed out
[1741611087.096364] [ohm:3471696:0]        ib_iface.c:1059 UCX  ERROR ibv_create_cq(cqe=256) failed: Connection timed out
[1741611087.096597] [ohm:3471561:0]        ib_iface.c:1059 UCX  ERROR ibv_create_cq(cqe=256) failed: Connection timed out
[1741611087.096847] [ohm:3471620:0]        ib_iface.c:1059 UCX  ERROR ibv_create_cq(cqe=256) failed: Connection timed out
[1741611087.099284] [ohm:3471685:0]        ib_iface.c:1059 UCX  ERROR ibv_create_cq(cqe=256) failed: Connection timed out
[1741611087.099356] [ohm:3471624:0]        ib_iface.c:1059 UCX  ERROR ibv_create_cq(cqe=256) failed: Connection timed out
[1741611087.101429] [ohm:3471616:0]        ib_iface.c:1059 UCX  ERROR ibv_create_cq(cqe=256) failed: Connection timed out


           ************************************************************
           *        Program running with 64 parallel MPI-processes    *
           *              working on a common directory               *
           ************************************************************
-------------------------------------------------------------------------------
                                 ORCA GUESS
                   Start orbitals & Density for SCF / CASSCF
-------------------------------------------------------------------------------

------------
SCF SETTINGS
------------
Hamiltonian:
 Density Functional     Method          .... DFT(GTOs)
  Functional kind                       .... Exchange-Correlation
  Functional name                       .... wB97M-V exchange-correlation functional
  Functional family                     .... Hybrid MGGA
  Functional refs                              
    [ 0] N. Mardirossian and M. Head-Gordon.,  J. Chem. Phys. 144, 214110 (2016), doi: 10.1063/1.4952647
  Fraction of HF Exchange (short range) .... 0.1500
  Fraction of HF Exchange (long range)  .... 1.0000
  Range separation parameter mu         .... 0.3000
  Functional external parameters        .... 17
    Parameter  0 _cx00      =  8.500000e-01 : u^00 coefficient for exchange
    Parameter  1 _cx01      =  1.007000e+00 : u^01 coefficient for exchange
    Parameter  2 _cx10      =  2.590000e-01 : u^10 coefficient for exchange
    Parameter  3 _css00     =  4.430000e-01 : u^00 coefficient for same-spin correlation
    Parameter  4 _css04     = -1.437000e+00 : u^04 coefficient for same-spin correlation
    Parameter  5 _css10     = -4.535000e+00 : u^10 coefficient for same-spin correlation
    Parameter  6 _css20     = -3.390000e+00 : u^20 coefficient for same-spin correlation
    Parameter  7 _css43     =  4.278000e+00 : u^43 coefficient for same-spin correlation
    Parameter  8 _cos00     =  1.000000e+00 : u^00 coefficient for opposite-spin correlation
    Parameter  9 _cos10     =  1.358000e+00 : u^10 coefficient for opposite-spin correlation
    Parameter 10 _cos20     =  2.924000e+00 : u^20 coefficient for opposite-spin correlation
    Parameter 11 _cos21     = -8.812000e+00 : u^21 coefficient for opposite-spin correlation
    Parameter 12 _cos60     = -1.390000e+00 : u^60 coefficient for opposite-spin correlation
    Parameter 13 _cos61     =  9.142000e+00 : u^61 coefficient for opposite-spin correlation
    Parameter 14 _alpha     =  1.000000e+00 : fraction of HF exchange
    Parameter 15 _beta      = -8.500000e-01 : fraction of short-range exchange
    Parameter 16 _omega     =  3.000000e-01 : range-separation constant
 Long-range corrected/Screened/Range-Separated Hybrid DFT is turned on
   Amount of maximum screened exact exchange              ....  0.850000
   Range separation parameter mu (erf(mu*r12)/r12)        ....  0.300000
 RI-approximation to the Coulomb term is turned on
   Number of AuxJ basis functions       .... 191
   RIJ-COSX (HFX calculated with COS-X)).... on


General Settings:
 Integral files         IntName         .... orca
 Hartree-Fock type      HFTyp           .... UHF
 Total Charge           Charge          ....    0
 Multiplicity           Mult            ....    3
 Number of Electrons    NEL             ....   24
 Basis Dimension        Dim             ....  182
 Nuclear Repulsion      ENuc            ....     67.2812918946 Eh

Convergence Acceleration:
 AO-DIIS                CNVDIIS         .... on
   Start iteration      DIISMaxIt       ....    12
   Startup error        DIISStart       ....  0.200000
   # of expansion vecs  DIISMaxEq       ....     5
   Bias factor          DIISBfac        ....   1.050
   Max. coefficient     DIISMaxC        ....  10.000
 MO-DIIS                CNVKDIIS        .... off
 Trust-Rad. Augm. Hess. CNVTRAH         .... auto
   Auto Start mean grad. ratio tolernc. ....  1.125000
   Auto Start start iteration           ....    50
   Auto Start num. interpolation iter.  ....    10
   Max. Number of Micro iterations      ....    24
   Max. Number of Macro iterations      .... Maxiter - #DIIS iter
   Number of Davidson start vectors     ....     2
   Converg. threshold    (grad. norm)   ....   1.000e-05
   Grad. Scal. Fac. for Micro threshold ....   0.100
   Minimum threshold for Micro iter.    ....   1.000e-02
   NR start threshold (gradient norm)   ....   1.000e-04
   Initial trust radius                 ....   0.400
   Minimum AH scaling param. (alpha)    ....   1.000
   Maximum AH scaling param. (alpha)    .... 1000.000
   Quad. conv. algorithm                .... NR
   White noise on init. David. guess    .... on
   Maximum white noise                  ....   0.010
   Pseudo random numbers                .... off
   Inactive MOs                         .... canonical
   Orbital update algorithm             .... Taylor
   Preconditioner                       .... Diag
   Full preconditioner red. dimension   ....   250
 SOSCF                  CNVSOSCF        .... on
   Start iteration      SOSCFMaxIt      ....   150
   Startup grad/error   SOSCFStart      ....  0.003300
   Hessian update       SOSCFHessUp     .... L-BFGS
 Level Shifting         CNVShift        .... on
   Level shift para.    LevelShift      ....    0.2500
   Turn off err/grad.   ShiftErr        ....    0.0010
 Zerner damping         CNVZerner       .... off
 Static damping         CNVDamp         .... on
   Fraction old density DampFac         ....    0.7000
   Max. Damping (<1)    DampMax         ....    0.9800
   Min. Damping (>=0)   DampMin         ....    0.0000
   Turn off err/grad.   DampErr         ....    0.1000

SCF Procedure:
 Maximum # iterations   MaxIter         ....   125
 SCF integral mode      SCFMode         .... Direct
   Integral package                     .... SHARK and LIBINT hybrid scheme
 Reset frequency        DirectResetFreq ....    20
 Integral Threshold     Thresh          ....  2.500e-11 Eh
 Primitive CutOff       TCut            ....  2.500e-12 Eh

Convergence Tolerance:
 Convergence Check Mode ConvCheckMode   .... Total+1el-Energy
 Convergence forced     ConvForced      .... 1
 Energy Change          TolE            ....  1.000e-08 Eh
 1-El. energy change                    ....  1.000e-05 Eh
 Orbital Gradient       TolG            ....  1.000e-05
 Orbital Rotation angle TolX            ....  1.000e-05
 DIIS Error             TolErr          ....  5.000e-07

------------------------------
INITIAL GUESS: MODEL POTENTIAL
------------------------------
Loading Hartree-Fock densities                     ... done
Calculating cut-offs                               ... done
Initializing the effective Hamiltonian             ... done
Setting up the integral package (SHARK)            ... done
Starting the Coulomb interaction                   ... done (   0.0 sec)
Making the grid                                    ... done (   0.0 sec)
Mapping shells                                     ... done
Starting the XC term evaluation                    ... done (   0.0 sec)
  promolecular density results
     # of electrons  =     23.997902356
     EX              =    -19.463669408
     EC              =     -0.764740449
     EX+EC           =    -20.228409857
Transforming the Hamiltonian                       ... done (   0.0 sec)
Diagonalizing the Hamiltonian                      ... done (   0.0 sec)
Back transforming the eigenvectors                 ... done (   0.0 sec)
Now organizing SCF variables                       ... done
                      ------------------
                      INITIAL GUESS DONE (   0.1 sec)
                      ------------------
             **** ENERGY FILE WAS UPDATED (orca.en.tmp) ****
Finished Guess after   1.7 sec
Maximum memory used throughout the entire GUESS-calculation: 9.5 MB
[1741611088.895994] [ohm:3471891:0]        ib_iface.c:1059 UCX  ERROR ibv_create_cq(cqe=256) failed: Connection timed out
[1741611088.899680] [ohm:3471892:0]        ib_iface.c:1059 UCX  ERROR ibv_create_cq(cqe=256) failed: Connection timed out
[1741611088.957707] [ohm:3471895:0]        ib_iface.c:1059 UCX  ERROR ibv_create_cq(cqe=256) failed: Connection timed out
[1741611088.968073] [ohm:3471902:0]        ib_iface.c:1059 UCX  ERROR ibv_create_cq(cqe=256) failed: Connection timed out
[1741611088.986055] [ohm:3471894:0]        ib_iface.c:1059 UCX  ERROR ibv_create_cq(cqe=256) failed: Connection timed out
[1741611088.986899] [ohm:3471931:0]        ib_iface.c:1059 UCX  ERROR ibv_create_cq(cqe=256) failed: Connection timed out
[1741611089.008412] [ohm:3471904:0]        ib_iface.c:1059 UCX  ERROR ibv_create_cq(cqe=256) failed: Connection timed out
[1741611089.009849] [ohm:3471899:0]        ib_iface.c:1059 UCX  ERROR ibv_create_cq(cqe=256) failed: Connection timed out
[1741611089.018376] [ohm:3471898:0]        ib_iface.c:1059 UCX  ERROR ibv_create_cq(cqe=256) failed: Connection timed out
[1741611089.020837] [ohm:3471959:0]        ib_iface.c:1059 UCX  ERROR ibv_create_cq(cqe=256) failed: Connection timed out
[1741611089.025792] [ohm:3471893:0]        ib_iface.c:1059 UCX  ERROR ibv_create_cq(cqe=256) failed: Connection timed out
[1741611089.031739] [ohm:3472002:0]        ib_iface.c:1059 UCX  ERROR ibv_create_cq(cqe=256) failed: Connection timed out
[1741611089.033653] [ohm:3471896:0]        ib_iface.c:1059 UCX  ERROR ibv_create_cq(cqe=256) failed: Connection timed out
[1741611089.034438] [ohm:3471968:0]        ib_iface.c:1059 UCX  ERROR ibv_create_cq(cqe=256) failed: Connection timed out
[1741611089.035310] [ohm:3471958:0]        ib_iface.c:1059 UCX  ERROR ibv_create_cq(cqe=256) failed: Connection timed out
[1741611089.041585] [ohm:3471950:0]        ib_iface.c:1059 UCX  ERROR ibv_create_cq(cqe=256) failed: Connection timed out
[1741611089.046040] [ohm:3471949:0]        ib_iface.c:1059 UCX  ERROR ibv_create_cq(cqe=256) failed: Connection timed out
[1741611089.046439] [ohm:3471905:0]        ib_iface.c:1059 UCX  ERROR ibv_create_cq(cqe=256) failed: Connection timed out
[1741611089.048051] [ohm:3471957:0]        ib_iface.c:1059 UCX  ERROR ibv_create_cq(cqe=256) failed: Connection timed out
[1741611089.048996] [ohm:3471994:0]        ib_iface.c:1059 UCX  ERROR ibv_create_cq(cqe=256) failed: Connection timed out
[1741611089.053858] [ohm:3471946:0]        ib_iface.c:1059 UCX  ERROR ibv_create_cq(cqe=256) failed: Connection timed out
[1741611089.056736] [ohm:3471951:0]        ib_iface.c:1059 UCX  ERROR ibv_create_cq(cqe=256) failed: Connection timed out
[1741611089.093649] [ohm:3471956:0]        ib_iface.c:1059 UCX  ERROR ibv_create_cq(cqe=256) failed: Connection timed out
[1741611089.102670] [ohm:3471943:0]        ib_iface.c:1059 UCX  ERROR ibv_create_cq(cqe=256) failed: Connection timed out
[1741611089.105731] [ohm:3471979:0]        ib_iface.c:1059 UCX  ERROR ibv_create_cq(cqe=256) failed: Connection timed out
[1741611089.110354] [ohm:3472006:0]        ib_iface.c:1059 UCX  ERROR ibv_create_cq(cqe=256) failed: Connection timed out
[1741611089.123083] [ohm:3471940:0]        ib_iface.c:1059 UCX  ERROR ibv_create_cq(cqe=256) failed: Connection timed out
[1741611089.128099] [ohm:3471900:0]        ib_iface.c:1059 UCX  ERROR ibv_create_cq(cqe=256) failed: Connection timed out
[1741611089.128568] [ohm:3471952:0]        ib_iface.c:1059 UCX  ERROR ibv_create_cq(cqe=256) failed: Connection timed out
[1741611089.160085] [ohm:3471903:0]        ib_iface.c:1059 UCX  ERROR ibv_create_cq(cqe=256) failed: Connection timed out
[1741611089.161202] [ohm:3471945:0]        ib_iface.c:1059 UCX  ERROR ibv_create_cq(cqe=256) failed: Connection timed out
[1741611089.162568] [ohm:3471936:0]        ib_iface.c:1059 UCX  ERROR ibv_create_cq(cqe=256) failed: Connection timed out
[1741611089.163575] [ohm:3471963:0]        ib_iface.c:1059 UCX  ERROR ibv_create_cq(cqe=256) failed: Connection timed out
[1741611089.166922] [ohm:3471934:0]        ib_iface.c:1059 UCX  ERROR ibv_create_cq(cqe=256) failed: Connection timed out
[1741611089.172041] [ohm:3471947:0]        ib_iface.c:1059 UCX  ERROR ibv_create_cq(cqe=256) failed: Connection timed out
[1741611089.177453] [ohm:3471972:0]        ib_iface.c:1059 UCX  ERROR ibv_create_cq(cqe=256) failed: Connection timed out
[1741611089.177917] [ohm:3472013:0]        ib_iface.c:1059 UCX  ERROR ibv_create_cq(cqe=256) failed: Connection timed out
[1741611089.191107] [ohm:3471942:0]        ib_iface.c:1059 UCX  ERROR ibv_create_cq(cqe=256) failed: Connection timed out
[1741611089.195477] [ohm:3471944:0]        ib_iface.c:1059 UCX  ERROR ibv_create_cq(cqe=256) failed: Connection timed out
[1741611089.203362] [ohm:3472000:0]        ib_iface.c:1059 UCX  ERROR ibv_create_cq(cqe=256) failed: Connection timed out
[1741611089.204402] [ohm:3471985:0]        ib_iface.c:1059 UCX  ERROR ibv_create_cq(cqe=256) failed: Connection timed out
[1741611089.212214] [ohm:3471955:0]        ib_iface.c:1059 UCX  ERROR ibv_create_cq(cqe=256) failed: Connection timed out
[1741611089.216230] [ohm:3471953:0]        ib_iface.c:1059 UCX  ERROR ibv_create_cq(cqe=256) failed: Connection timed out
[1741611089.216814] [ohm:3471981:0]        ib_iface.c:1059 UCX  ERROR ibv_create_cq(cqe=256) failed: Connection timed out
[1741611089.217768] [ohm:3472040:0]        ib_iface.c:1059 UCX  ERROR ibv_create_cq(cqe=256) failed: Connection timed out
[1741611089.220121] [ohm:3471965:0]        ib_iface.c:1059 UCX  ERROR ibv_create_cq(cqe=256) failed: Connection timed out
[1741611089.220385] [ohm:3472015:0]        ib_iface.c:1059 UCX  ERROR ibv_create_cq(cqe=256) failed: Connection timed out
[1741611089.220383] [ohm:3471941:0]        ib_iface.c:1059 UCX  ERROR ibv_create_cq(cqe=256) failed: Connection timed out
[1741611089.224171] [ohm:3472029:0]        ib_iface.c:1059 UCX  ERROR ibv_create_cq(cqe=256) failed: Connection timed out
[1741611089.224751] [ohm:3472025:0]        ib_iface.c:1059 UCX  ERROR ibv_create_cq(cqe=256) failed: Connection timed out
[1741611089.227205] [ohm:3471901:0]        ib_iface.c:1059 UCX  ERROR ibv_create_cq(cqe=256) failed: Connection timed out
[1741611089.228803] [ohm:3471954:0]        ib_iface.c:1059 UCX  ERROR ibv_create_cq(cqe=256) failed: Connection timed out
[1741611089.230607] [ohm:3471897:0]        ib_iface.c:1059 UCX  ERROR ibv_create_cq(cqe=256) failed: Connection timed out
[1741611089.235100] [ohm:3471948:0]        ib_iface.c:1059 UCX  ERROR ibv_create_cq(cqe=256) failed: Connection timed out
[1741611089.240325] [ohm:3471975:0]        ib_iface.c:1059 UCX  ERROR ibv_create_cq(cqe=256) failed: Connection timed out
[1741611089.240754] [ohm:3471996:0]        ib_iface.c:1059 UCX  ERROR ibv_create_cq(cqe=256) failed: Connection timed out
[1741611089.241743] [ohm:3471960:0]        ib_iface.c:1059 UCX  ERROR ibv_create_cq(cqe=256) failed: Connection timed out
[1741611089.243248] [ohm:3471992:0]        ib_iface.c:1059 UCX  ERROR ibv_create_cq(cqe=256) failed: Connection timed out
[1741611089.244645] [ohm:3472009:0]        ib_iface.c:1059 UCX  ERROR ibv_create_cq(cqe=256) failed: Connection timed out
[1741611089.245328] [ohm:3471937:0]        ib_iface.c:1059 UCX  ERROR ibv_create_cq(cqe=256) failed: Connection timed out
[1741611089.245041] [ohm:3471988:0]        ib_iface.c:1059 UCX  ERROR ibv_create_cq(cqe=256) failed: Connection timed out
[1741611089.246481] [ohm:3472021:0]        ib_iface.c:1059 UCX  ERROR ibv_create_cq(cqe=256) failed: Connection timed out
[1741611089.248856] [ohm:3472038:0]        ib_iface.c:1059 UCX  ERROR ibv_create_cq(cqe=256) failed: Connection timed out
[1741611089.252636] [ohm:3472034:0]        ib_iface.c:1059 UCX  ERROR ibv_create_cq(cqe=256) failed: Connection timed out


           ************************************************************
           *        Program running with 64 parallel MPI-processes    *
           *              working on a common directory               *
           ************************************************************

-------------------------------------------------------------------------------------------
                                      ORCA LEAN-SCF
                              memory conserving SCF solver
-------------------------------------------------------------------------------------------

----------------------------------------D-I-I-S--------------------------------------------
Iteration    Energy (Eh)           Delta-E    RMSDP     MaxDP     DIISErr   Damp  Time(sec)
-------------------------------------------------------------------------------------------
               ***  Starting incremental Fock matrix formation  ***
    1    -153.7074159966936122     0.00e+00  7.92e-04  2.02e-02  7.34e-02  0.700   0.3
    2    -153.7330054272493385    -2.56e-02  6.94e-04  1.81e-02  4.11e-02  0.700   0.3
                               ***Turning on AO-DIIS***
    3    -153.7473873431575839    -1.44e-02  5.67e-04  2.21e-02  2.61e-02  0.700   0.3
    4    -153.7564714901927232    -9.08e-03  1.43e-03  5.98e-02  2.16e-02  0.000   0.3
    5    -153.7784209201019223    -2.19e-02  1.59e-04  5.29e-03  8.20e-03  0.000   0.3
    6    -153.7790843194337640    -6.63e-04  1.04e-04  2.42e-03  4.29e-03  0.000   0.3
    7    -153.7794058018882879    -3.21e-04  6.35e-05  1.46e-03  3.49e-03  0.000   0.3
                              *** Initializing SOSCF ***
---------------------------------------S-O-S-C-F--------------------------------------
Iteration    Energy (Eh)           Delta-E    RMSDP     MaxDP     MaxGrad    Time(sec)
--------------------------------------------------------------------------------------
    8    -153.7795532887319609    -1.47e-04  3.39e-05  1.00e-03  1.49e-03     0.3
               *** Restarting incremental Fock matrix formation ***
    9    -153.7795905580096303    -3.73e-05  2.11e-05  9.29e-04  1.32e-03     0.3
   10    -153.7796013750479744    -1.08e-05  3.84e-05  1.39e-03  6.50e-04     0.3
   11    -153.7796108136910789    -9.44e-06  1.68e-05  5.30e-04  5.51e-04     0.3
   12    -153.7796149734875542    -4.16e-06  6.04e-05  2.53e-03  5.45e-04     0.3
   13    -153.7796275629141007    -1.26e-05  9.41e-05  4.73e-03  4.90e-04     0.3
   14    -153.7796432992386997    -1.57e-05  9.99e-05  5.45e-03  6.42e-04     0.3
   15    -153.7796563258461049    -1.30e-05  5.36e-05  2.67e-03  4.82e-04     0.3
   16    -153.7796616040280924    -5.28e-06  1.54e-05  6.52e-04  1.66e-04     0.3
   17    -153.7796624874918336    -8.83e-07  5.44e-06  2.75e-04  8.70e-05     0.3
   18    -153.7796626117473693    -1.24e-07  1.76e-06  7.91e-05  4.71e-05     0.3
   19    -153.7796626395929991    -2.78e-08  1.10e-06  4.44e-05  2.26e-05     0.3
   20    -153.7796626470747299    -7.48e-09  5.47e-07  2.52e-05  4.37e-06     0.3
                 **** Energy Check signals convergence ****

               *****************************************************
               *                     SUCCESS                       *
               *           SCF CONVERGED AFTER  20 CYCLES          *
               *****************************************************

Recomputing exchange energy using gridx3       ... done (    0.176 sec)
Old exchange energy                            :     -6.201521124 Eh
New exchange energy                            :     -6.201515817 Eh
Exchange energy change after final integration :      0.000005307 Eh
Total energy after final integration           :   -153.779657340 Eh
             **** ENERGY FILE WAS UPDATED (orca.en.tmp) ****

----------------
TOTAL SCF ENERGY
----------------

Total Energy       :       -153.77965733995251 Eh           -4184.55721 eV

Components:
Nuclear Repulsion  :         67.28129189456484 Eh            1830.81703 eV
Electronic Energy  :       -221.06095454163957 Eh           -6015.37439 eV
One Electron Energy:       -341.10762391053674 Eh           -9282.01033 eV
Two Electron Energy:        120.04666936889717 Eh            3266.63595 eV

Virial components:
Potential Energy   :       -307.12784543216503 Eh           -8357.37355 eV
Kinetic Energy     :        153.34818809221255 Eh            4172.81634 eV
Virial Ratio       :          2.00281365729265

DFT components:
N(Alpha)           :       12.999988901248 electrons
N(Beta)            :       10.999978433093 electrons
N(Total)           :       23.999967334341 electrons
E(XC)              :      -14.707521907812 Eh       

---------------
SCF CONVERGENCE
---------------

  Last Energy change         ...    7.4817e-09  Tolerance :   1.0000e-08
  Last MAX-Density change    ...    2.5169e-05  Tolerance :   1.0000e-07
  Last RMS-Density change    ...    5.4685e-07  Tolerance :   5.0000e-09
  Last DIIS Error            ...    1.4925e-03  Tolerance :   5.0000e-07
  Last Orbital Gradient      ...    4.3659e-06  Tolerance :   1.0000e-05
  Last Orbital Rotation      ...    1.1934e-04  Tolerance :   1.0000e-05


----------------------
UHF SPIN CONTAMINATION
----------------------

Warning: in a DFT calculation there is little theoretical justification to 
         calculate <S**2> as in Hartree-Fock theory. We will do it anyways
         but you should keep in mind that the values have only limited relevance

Expectation value of <S**2>     :     2.007730
Ideal value S*(S+1) for S=1.0   :     2.000000
Deviation                       :     0.007730

----------------
ORBITAL ENERGIES
----------------
                 SPIN UP ORBITALS
  NO   OCC          E(Eh)            E(eV) 
   0   1.0000     -19.387011      -527.5474 
   1   1.0000     -10.409611      -283.2599 
   2   1.0000     -10.368878      -282.1515 
   3   1.0000      -1.162826       -31.6421 
   4   1.0000      -0.878843       -23.9145 
   5   1.0000      -0.741914       -20.1885 
   6   1.0000      -0.620542       -16.8858 
   7   1.0000      -0.577561       -15.7162 
   8   1.0000      -0.554927       -15.1003 
   9   1.0000      -0.527721       -14.3600 
  10   1.0000      -0.430728       -11.7207 
  11   1.0000      -0.411111       -11.1869 
  12   1.0000      -0.335907        -9.1405 
  13   0.0000       0.040456         1.1009 
  14   0.0000       0.061397         1.6707 
  15   0.0000       0.076880         2.0920 
  16   0.0000       0.089545         2.4367 
  17   0.0000       0.114348         3.1116 
  18   0.0000       0.125061         3.4031 
  19   0.0000       0.128348         3.4925 
  20   0.0000       0.143091         3.8937 
  21   0.0000       0.171231         4.6594 
  22   0.0000       0.192907         5.2493 
  23   0.0000       0.209037         5.6882 

                 SPIN DOWN ORBITALS
  NO   OCC          E(Eh)            E(eV) 
   0   1.0000     -19.362712      -526.8862 
   1   1.0000     -10.410931      -283.2958 
   2   1.0000     -10.355902      -281.7984 
   3   1.0000      -1.107967       -30.1493 
   4   1.0000      -0.845852       -23.0168 
   5   1.0000      -0.715036       -19.4571 
   6   1.0000      -0.587709       -15.9924 
   7   1.0000      -0.556849       -15.1526 
   8   1.0000      -0.526250       -14.3200 
   9   1.0000      -0.488380       -13.2895 
  10   1.0000      -0.381662       -10.3856 
  11   0.0000      -0.050715        -1.3800 
  12   0.0000      -0.008960        -0.2438 
  13   0.0000       0.039460         1.0738 
  14   0.0000       0.061322         1.6687 
  15   0.0000       0.076859         2.0914 
  16   0.0000       0.091920         2.5013 
  17   0.0000       0.114520         3.1162 
  18   0.0000       0.127141         3.4597 
  19   0.0000       0.131648         3.5823 
  20   0.0000       0.147230         4.0063 
  21   0.0000       0.179699         4.8899 
*Only the first 10 virtual orbitals were printed.

                    ********************************
                    * MULLIKEN POPULATION ANALYSIS *
                    ********************************

--------------------------------------------
MULLIKEN ATOMIC CHARGES AND SPIN POPULATIONS
--------------------------------------------
   0 O :   -0.332738    0.937333
   1 C :   -0.013449    0.007890
   2 C :   -0.586886    0.846341
   3 H :    0.222354    0.066124
   4 H :    0.190229    0.084536
   5 H :    0.296817    0.032986
   6 H :    0.223673    0.024791
Sum of atomic charges         :    0.0000000
Sum of atomic spin populations:    2.0000000

-----------------------------------------------------
MULLIKEN REDUCED ORBITAL CHARGES AND SPIN POPULATIONS
-----------------------------------------------------
CHARGE
  0 O s       :     3.993706  s :     3.993706
      pz      :     1.392742  p :     4.316748
      px      :     1.548154
      py      :     1.375853
      dz2     :     0.002419  d :     0.021069
      dxz     :     0.002068
      dyz     :     0.004788
      dx2y2   :     0.005023
      dxy     :     0.006771
      f0      :     0.000103  f :     0.001214
      f+1     :     0.000072
      f-1     :     0.000175
      f+2     :     0.000069
      f-2     :     0.000163
      f+3     :     0.000373
      f-3     :     0.000259

  1 C s       :     3.207670  s :     3.207670
      pz      :     0.999853  p :     2.632197
      px      :     0.873525
      py      :     0.758819
      dz2     :     0.025950  d :     0.163750
      dxz     :     0.019048
      dyz     :     0.023875
      dx2y2   :     0.030764
      dxy     :     0.064113
      f0      :     0.001140  f :     0.009832
      f+1     :     0.001008
      f-1     :     0.000645
      f+2     :     0.000987
      f-2     :     0.001287
      f+3     :     0.001799
      f-3     :     0.002966

  2 C s       :     3.608201  s :     3.608201
      pz      :     1.031517  p :     2.959827
      px      :     1.011224
      py      :     0.917085
      dz2     :     0.001226  d :     0.015438
      dxz     :     0.001267
      dyz     :     0.003255
      dx2y2   :     0.004627
      dxy     :     0.005063
      f0      :     0.000463  f :     0.003421
      f+1     :     0.000734
      f-1     :     0.000191
      f+2     :     0.000617
      f-2     :     0.000342
      f+3     :     0.000658
      f-3     :     0.000415

  3 H s       :     0.741113  s :     0.741113
      pz      :    -0.000900  p :     0.033659
      px      :     0.014648
      py      :     0.019910
      dz2     :     0.000227  d :     0.002874
      dxz     :     0.000515
      dyz     :     0.000421
      dx2y2   :     0.001262
      dxy     :     0.000450

  4 H s       :     0.772233  s :     0.772233
      pz      :     0.016157  p :     0.034880
      px      :     0.008597
      py      :     0.010127
      dz2     :     0.000701  d :     0.002658
      dxz     :     0.000879
      dyz     :     0.000807
      dx2y2   :     0.000075
      dxy     :     0.000197

  5 H s       :     0.662170  s :     0.662170
      pz      :     0.007833  p :     0.038755
      px      :     0.005736
      py      :     0.025187
      dz2     :     0.000376  d :     0.002258
      dxz     :     0.000611
      dyz     :     0.000130
      dx2y2   :     0.000359
      dxy     :     0.000781

  6 H s       :     0.735701  s :     0.735701
      pz      :     0.010084  p :     0.038424
      px      :     0.008040
      py      :     0.020299
      dz2     :     0.000670  d :     0.002203
      dxz     :     0.000680
      dyz     :     0.000755
      dx2y2   :     0.000048
      dxy     :     0.000049


SPIN
  0 O s       :     0.009790  s :     0.009790
      pz      :     0.541993  p :     0.932190
      px      :     0.267568
      py      :     0.122629
      dz2     :    -0.000050  d :    -0.004484
      dxz     :    -0.000747
      dyz     :    -0.001792
      dx2y2   :    -0.001162
      dxy     :    -0.000734
      f0      :    -0.000012  f :    -0.000162
      f+1     :    -0.000002
      f-1     :    -0.000056
      f+2     :     0.000005
      f-2     :    -0.000002
      f+3     :    -0.000068
      f-3     :    -0.000027

  1 C s       :     0.008296  s :     0.008296
      pz      :    -0.008323  p :    -0.074456
      px      :    -0.015790
      py      :    -0.050343
      dz2     :     0.009612  d :     0.071420
      dxz     :     0.007285
      dyz     :     0.014255
      dx2y2   :     0.010488
      dxy     :     0.029779
      f0      :     0.000408  f :     0.002631
      f+1     :     0.000123
      f-1     :     0.000063
      f+2     :     0.000197
      f-2     :     0.000817
      f+3     :     0.000029
      f-3     :     0.000991

  2 C s       :    -0.044910  s :    -0.044910
      pz      :     0.064725  p :     0.903217
      px      :     0.016073
      py      :     0.822420
      dz2     :    -0.006713  d :    -0.010879
      dxz     :     0.000127
      dyz     :    -0.000628
      dx2y2   :    -0.002339
      dxy     :    -0.001326
      f0      :    -0.000149  f :    -0.001088
      f+1     :     0.000042
      f-1     :    -0.000163
      f+2     :    -0.000275
      f-2     :    -0.000038
      f+3     :    -0.000416
      f-3     :    -0.000087

  3 H s       :     0.062028  s :     0.062028
      pz      :     0.000169  p :     0.004066
      px      :    -0.000295
      py      :     0.004193
      dz2     :     0.000015  d :     0.000030
      dxz     :     0.000008
      dyz     :    -0.000016
      dx2y2   :    -0.000025
      dxy     :     0.000047

  4 H s       :     0.076177  s :     0.076177
      pz      :     0.004485  p :     0.008296
      px      :     0.001684
      py      :     0.002127
      dz2     :     0.000065  d :     0.000062
      dxz     :    -0.000007
      dyz     :    -0.000014
      dx2y2   :     0.000001
      dxy     :     0.000017

  5 H s       :     0.004296  s :     0.004296
      pz      :     0.002434  p :     0.027583
      px      :     0.000166
      py      :     0.024983
      dz2     :     0.000108  d :     0.001106
      dxz     :     0.000139
      dyz     :     0.000123
      dx2y2   :    -0.000001
      dxy     :     0.000738

  6 H s       :     0.000491  s :     0.000491
      pz      :     0.002797  p :     0.023335
      px      :     0.000417
      py      :     0.020120
      dz2     :     0.000127  d :     0.000965
      dxz     :     0.000144
      dyz     :     0.000633
      dx2y2   :     0.000045
      dxy     :     0.000016



                     *******************************
                     * LOEWDIN POPULATION ANALYSIS *
                     *******************************

-------------------------------------------
LOEWDIN ATOMIC CHARGES AND SPIN POPULATIONS
-------------------------------------------
   0 O :    0.051989    0.873025
   1 C :   -0.228261    0.197272
   2 C :    0.283798    0.668442
   3 H :   -0.012036    0.039971
   4 H :    0.042504    0.051944
   5 H :   -0.112794    0.098240
   6 H :   -0.025200    0.071108

----------------------------------------------------
LOEWDIN REDUCED ORBITAL CHARGES AND SPIN POPULATIONS
----------------------------------------------------
CHARGE
  0 O s       :     3.487341  s :     3.487341
      pz      :     1.288500  p :     4.206138
      px      :     1.473021
      py      :     1.444617
      dz2     :     0.023831  d :     0.250677
      dxz     :     0.023245
      dyz     :     0.059188
      dx2y2   :     0.076469
      dxy     :     0.067945
      f0      :     0.000439  f :     0.003855
      f+1     :     0.000188
      f-1     :     0.000460
      f+2     :     0.000207
      f-2     :     0.000566
      f+3     :     0.000890
      f-3     :     0.001105

  1 C s       :     2.646588  s :     2.646588
      pz      :     0.890245  p :     2.602075
      px      :     0.898682
      py      :     0.813148
      dz2     :     0.176806  d :     0.898828
      dxz     :     0.134956
      dyz     :     0.108903
      dx2y2   :     0.207425
      dxy     :     0.270738
      f0      :     0.009008  f :     0.080771
      f+1     :     0.007863
      f-1     :     0.009234
      f+2     :     0.008999
      f-2     :     0.009341
      f+3     :     0.016604
      f-3     :     0.019722

  2 C s       :     2.732207  s :     2.732207
      pz      :     0.934020  p :     2.585608
      px      :     0.958405
      py      :     0.693182
      dz2     :     0.125891  d :     0.377342
      dxz     :     0.104030
      dyz     :     0.023379
      dx2y2   :     0.074896
      dxy     :     0.049146
      f0      :     0.003354  f :     0.021046
      f+1     :     0.004497
      f-1     :     0.001155
      f+2     :     0.003725
      f-2     :     0.002359
      f+3     :     0.003498
      f-3     :     0.002458

  3 H s       :     0.689392  s :     0.689392
      pz      :     0.081911  p :     0.286922
      px      :     0.103507
      py      :     0.101504
      dz2     :     0.003995  d :     0.035722
      dxz     :     0.006381
      dyz     :     0.005292
      dx2y2   :     0.010354
      dxy     :     0.009699

  4 H s       :     0.666754  s :     0.666754
      pz      :     0.126408  p :     0.261508
      px      :     0.074714
      py      :     0.060386
      dz2     :     0.010293  d :     0.029233
      dxz     :     0.009310
      dyz     :     0.007948
      dx2y2   :     0.000633
      dxy     :     0.001049

  5 H s       :     0.748534  s :     0.748534
      pz      :     0.101225  p :     0.326070
      px      :     0.130002
      py      :     0.094842
      dz2     :     0.005789  d :     0.038190
      dxz     :     0.010876
      dyz     :     0.001964
      dx2y2   :     0.009064
      dxy     :     0.010496

  6 H s       :     0.727600  s :     0.727600
      pz      :     0.127066  p :     0.270304
      px      :     0.065988
      py      :     0.077250
      dz2     :     0.010366  d :     0.027295
      dxz     :     0.007565
      dyz     :     0.008316
      dx2y2   :     0.000534
      dxy     :     0.000515


SPIN
  0 O s       :     0.016164  s :     0.016164
      pz      :     0.492240  p :     0.843325
      px      :     0.246683
      py      :     0.104402
      dz2     :     0.000911  d :     0.013538
      dxz     :     0.003806
      dyz     :     0.004465
      dx2y2   :     0.003415
      dxy     :     0.000940
      f0      :     0.000049  f :    -0.000003
      f+1     :    -0.000008
      f-1     :    -0.000046
      f+2     :     0.000016
      f-2     :     0.000055
      f+3     :    -0.000114
      f-3     :     0.000045

  1 C s       :    -0.003817  s :    -0.003817
      pz      :    -0.001289  p :    -0.014227
      px      :    -0.006679
      py      :    -0.006260
      dz2     :     0.023096  d :     0.194196
      dxz     :     0.019055
      dyz     :     0.046762
      dx2y2   :     0.021875
      dxy     :     0.083408
      f0      :     0.003692  f :     0.021120
      f+1     :     0.000833
      f-1     :     0.000817
      f+2     :     0.001889
      f-2     :     0.005831
      f+3     :     0.000783
      f-3     :     0.007274

  2 C s       :     0.011600  s :     0.011600
      pz      :     0.047267  p :     0.661512
      px      :     0.013858
      py      :     0.600386
      dz2     :     0.000790  d :    -0.004111
      dxz     :    -0.002106
      dyz     :    -0.001076
      dx2y2   :    -0.002566
      dxy     :     0.000846
      f0      :    -0.000211  f :    -0.000560
      f+1     :     0.000125
      f-1     :    -0.000110
      f+2     :    -0.000254
      f-2     :    -0.000095
      f+3     :    -0.000412
      f-3     :     0.000397

  3 H s       :     0.033495  s :     0.033495
      pz      :    -0.000534  p :     0.006796
      px      :     0.004317
      py      :     0.003014
      dz2     :    -0.000002  d :    -0.000320
      dxz     :     0.000052
      dyz     :    -0.000130
      dx2y2   :    -0.000318
      dxy     :     0.000078

  4 H s       :     0.046293  s :     0.046293
      pz      :     0.001254  p :     0.006055
      px      :     0.002053
      py      :     0.002747
      dz2     :     0.000018  d :    -0.000404
      dxz     :    -0.000118
      dyz     :    -0.000293
      dx2y2   :    -0.000008
      dxy     :    -0.000003

  5 H s       :    -0.010358  s :    -0.010358
      pz      :     0.005343  p :     0.095199
      px      :     0.004170
      py      :     0.085685
      dz2     :     0.000645  d :     0.013399
      dxz     :     0.000940
      dyz     :     0.001746
      dx2y2   :     0.000222
      dxy     :     0.009846

  6 H s       :    -0.012643  s :    -0.012643
      pz      :     0.007797  p :     0.074552
      px      :     0.000448
      py      :     0.066306
      dz2     :     0.001834  d :     0.009199
      dxz     :     0.000383
      dyz     :     0.006458
      dx2y2   :     0.000418
      dxy     :     0.000106



                      *****************************
                      * MAYER POPULATION ANALYSIS *
                      *****************************

  NA   - Mulliken gross atomic population
  ZA   - Total nuclear charge
  QA   - Mulliken gross atomic charge
  VA   - Mayer's total valence
  BVA  - Mayer's bonded valence
  FA   - Mayer's free valence

  ATOM       NA         ZA         QA         VA         BVA        FA
  0 O      8.3327     8.0000    -0.3327     1.8474     1.0790     0.7684
  1 C      6.0134     6.0000    -0.0134     3.5808     3.5670     0.0138
  2 C      6.5869     6.0000    -0.5869     3.4683     2.6948     0.7735
  3 H      0.7776     1.0000     0.2224     1.0026     0.9995     0.0031
  4 H      0.8098     1.0000     0.1902     1.0073     1.0024     0.0049
  5 H      0.7032     1.0000     0.2968     0.8753     0.8753     0.0000
  6 H      0.7763     1.0000     0.2237     0.9453     0.9451     0.0002

  Mayer bond orders larger than 0.100000
B(  0-O ,  1-C ) :   0.9143 B(  1-C ,  2-C ) :   0.7769 B(  1-C ,  3-H ) :   0.9653 
B(  1-C ,  4-H ) :   0.9469 B(  2-C ,  5-H ) :   0.9048 B(  2-C ,  6-H ) :   0.9724 


-------
TIMINGS
-------

Total SCF time: 0 days 0 hours 0 min 7 sec 

Total time                  ....       7.629 sec
Sum of individual times     ....       7.600 sec  ( 99.6%)

SCF preparation             ....       1.627 sec  ( 21.3%)
Fock matrix formation       ....       4.715 sec  ( 61.8%)
  Startup                   ....       0.074 sec  (  1.6% of F)
  Split-RI-J                ....       0.517 sec  ( 11.0% of F)
  Chain of spheres X        ....       2.580 sec  ( 54.7% of F)
  XC integration            ....       1.228 sec  ( 26.1% of F)
    XC Preparation          ....       0.000 sec  (  0.0% of XC)
    Basis function eval.    ....       0.060 sec  (  4.9% of XC)
    Density eval.           ....       0.204 sec  ( 16.6% of XC)
    XC-Functional eval.     ....       0.015 sec  (  1.3% of XC)
    XC-Potential eval.      ....       0.293 sec  ( 23.9% of XC)
Diagonalization             ....       0.000 sec  (  0.0%)
Density matrix formation    ....       0.144 sec  (  1.9%)
Total Energy calculation    ....       0.139 sec  (  1.8%)
Population analysis         ....       0.042 sec  (  0.5%)
Orbital Transformation      ....       0.078 sec  (  1.0%)
[...]
[1741611107.276257] [ohm:3473093:0]        ib_iface.c:1059 UCX  ERROR ibv_create_cq(cqe=256) failed: Connection timed out
[1741611107.276595] [ohm:3473084:0]        ib_iface.c:1059 UCX  ERROR ibv_create_cq(cqe=256) failed: Connection timed out
[1741611107.276867] [ohm:3473111:0]        ib_iface.c:1059 UCX  ERROR ibv_create_cq(cqe=256) failed: Connection timed out
[1741611107.278230] [ohm:3473131:0]        ib_iface.c:1059 UCX  ERROR ibv_create_cq(cqe=256) failed: Connection timed out
[1741611107.282068] [ohm:3473062:0]        ib_iface.c:1059 UCX  ERROR ibv_create_cq(cqe=256) failed: Connection timed out
[1741611107.283850] [ohm:3473129:0]        ib_iface.c:1059 UCX  ERROR ibv_create_cq(cqe=256) failed: Connection timed out
[1741611107.284415] [ohm:3473112:0]        ib_iface.c:1059 UCX  ERROR ibv_create_cq(cqe=256) failed: Connection timed out
[1741611107.284662] [ohm:3473053:0]        ib_iface.c:1059 UCX  ERROR ibv_create_cq(cqe=256) failed: Connection timed out
[1741611107.285238] [ohm:3473034:0]        ib_iface.c:1059 UCX  ERROR ibv_create_cq(cqe=256) failed: Connection timed out
[1741611107.286217] [ohm:3473012:0]        ib_iface.c:1059 UCX  ERROR ibv_create_cq(cqe=256) failed: Connection timed out


           ************************************************************
           *        Program running with 64 parallel MPI-processes    *
           *              working on a common directory               *
           ************************************************************

------------------------------------------------------------------------------
                              ORCA PROPERTY CALCULATIONS
------------------------------------------------------------------------------

GBWName                                 ... orca.gbw
Number of atoms                         ...      7
Number of basis functions               ...    182
Max core memory                         ...   1024 MB

Electric properties:
Dipole moment                           ... YES
Quadrupole moment                       ...  NO
Static polarizability (Dipole/Dipole)   ...  NO
Static polarizability (Dipole/Quad.)    ...  NO
Static polarizability (Quad./Quad.)     ...  NO
Static polarizability (Velocity)        ...  NO

Atomic electric properties:
Dipole moment                           ...  NO
Quadrupole moment                       ...  NO
Static polarizability                   ...  NO

Choice of electric origin               ... Center of mass
Position of electric origin             ...     0.751754     0.122990     0.135919

General magnetic properties:
Magnetizability                         ...  NO

EPR properties:
g-Tensor (aka g-matrix)                 ...  NO
Zero-Field splitting spin-orbit         ...  NO
Zero-field splitting spin-spin          ...  NO
Hyperfine couplings                     ...  NO (   0 nuclei)
Quadrupole couplings                    ...  NO (   0 nuclei)
Contact density                         ...  NO (   0 nuclei)

NMR properties:
Chemical shifts                         ...  NO (   0 nuclei)
Spin-rotation constants                 ...  NO (   0 nuclei)
Spin-spin couplings                     ...  NO (   0 nuclei,    0 pairs)

Choice of magnetic origin               ... GIAO
Position of magnetic origin             ...     0.000000     0.000000     0.000000

Properties with geometric perturbations:
SCF Hessian                             ...  NO
IR spectrum                             ...  NO
VCD spectrum                            ...  NO
X-ray spectroscopy properties:
SCF XES/XAS/RIXS spectra                ...  NO


-------------
DIPOLE MOMENT
-------------

Method             : SCF
Type of density    : Electron Density
Multiplicity       :   3
Irrep              :   0
Energy             :  -153.7796573399525073 Eh
Relativity type    : 
Basis              : AO
                                X                 Y                 Z
Electronic contribution:      1.670364874      -2.000761511       0.309930486
Nuclear contribution   :     -2.035931508       2.737610867      -0.215900205
                        -----------------------------------------
Total Dipole Moment    :     -0.365566633       0.736849356       0.094030281
                        -----------------------------------------
Magnitude (a.u.)       :      0.827905569
Magnitude (Debye)      :      2.104368719



--------------------
Rotational spectrum 
--------------------
 
Rotational constants in cm-1:             1.572010             0.320922             0.295215 
Rotational constants in MHz :         47127.683797          9620.992879          8850.336214 

Dipole components along the rotational axes: 
x,y,z [a.u.] :    -0.665300     0.492371    -0.019345 
x,y,z [Debye]:    -1.691058     1.251508    -0.049172 

 

-------------
DIPOLE MOMENT
-------------

Method             : TDA/CIS
Type of density    : Electron Density
Level              : Relaxed density
State              :   2
Multiplicity       :   3
Irrep              :   0
Energy             :     0.0000000000000000 Eh
Relativity type    : 
Basis              : AO
                                X                 Y                 Z
Electronic contribution:      1.455405874      -1.862731204       0.162220345
Nuclear contribution   :     -2.035931508       2.737610867      -0.215900205
                        -----------------------------------------
Total Dipole Moment    :     -0.580525633       0.874879664      -0.053679860
                        -----------------------------------------
Magnitude (a.u.)       :      1.051335324
Magnitude (Debye)      :      2.672282025



--------------------
Rotational spectrum 
--------------------
 
Rotational constants in cm-1:             1.572010             0.320922             0.295215 
Rotational constants in MHz :         47127.683797          9620.992879          8850.336214 

Dipole components along the rotational axes: 
x,y,z [a.u.] :    -0.953450     0.439579    -0.054850 
x,y,z [Debye]:    -2.423478     1.117322    -0.139417 

 

Dipole moment calculation done in   0.0 sec 

Maximum memory used throughout the entire PROP-calculation: 7.4 MB
[1741611108.931786] [ohm:3473325:0]        ib_iface.c:1059 UCX  ERROR ibv_create_cq(cqe=256) failed: Connection timed out
[1741611108.944917] [ohm:3473321:0]        ib_iface.c:1059 UCX  ERROR ibv_create_cq(cqe=256) failed: Connection timed out
[1741611108.951115] [ohm:3473317:0]        ib_iface.c:1059 UCX  ERROR ibv_create_cq(cqe=256) failed: Connection timed out
[1741611108.954958] [ohm:3473316:0]        ib_iface.c:1059 UCX  ERROR ibv_create_cq(cqe=256) failed: Connection timed out
[1741611108.957749] [ohm:3473315:0]        ib_iface.c:1059 UCX  ERROR ibv_create_cq(cqe=256) failed: Connection timed out
[1741611108.987020] [ohm:3473338:0]        ib_iface.c:1059 UCX  ERROR ibv_create_cq(cqe=256) failed: Connection timed out
[1741611108.988292] [ohm:3473324:0]        ib_iface.c:1059 UCX  ERROR ibv_create_cq(cqe=256) failed: Connection timed out
[1741611108.992802] [ohm:3473320:0]        ib_iface.c:1059 UCX  ERROR ibv_create_cq(cqe=256) failed: Connection timed out
[1741611108.992850] [ohm:3473322:0]        ib_iface.c:1059 UCX  ERROR ibv_create_cq(cqe=256) failed: Connection timed out
[1741611108.998037] [ohm:3473368:0]        ib_iface.c:1059 UCX  ERROR ibv_create_cq(cqe=256) failed: Connection timed out
[1741611109.002556] [ohm:3473319:0]        ib_iface.c:1059 UCX  ERROR ibv_create_cq(cqe=256) failed: Connection timed out
[1741611109.022692] [ohm:3473377:0]        ib_iface.c:1059 UCX  ERROR ibv_create_cq(cqe=256) failed: Connection timed out
[1741611109.039519] [ohm:3473323:0]        ib_iface.c:1059 UCX  ERROR ibv_create_cq(cqe=256) failed: Connection timed out
[1741611109.048793] [ohm:3473314:0]        ib_iface.c:1059 UCX  ERROR ibv_create_cq(cqe=256) failed: Connection timed out
[1741611109.060892] [ohm:3473381:0]        ib_iface.c:1059 UCX  ERROR ibv_create_cq(cqe=256) failed: Connection timed out
[1741611109.064069] [ohm:3473371:0]        ib_iface.c:1059 UCX  ERROR ibv_create_cq(cqe=256) failed: Connection timed out
[1741611109.064475] [ohm:3473369:0]        ib_iface.c:1059 UCX  ERROR ibv_create_cq(cqe=256) failed: Connection timed out
[1741611109.066217] [ohm:3473355:0]        ib_iface.c:1059 UCX  ERROR ibv_create_cq(cqe=256) failed: Connection timed out
[1741611109.070620] [ohm:3473348:0]        ib_iface.c:1059 UCX  ERROR ibv_create_cq(cqe=256) failed: Connection timed out
[1741611109.070930] [ohm:3473326:0]        ib_iface.c:1059 UCX  ERROR ibv_create_cq(cqe=256) failed: Connection timed out
[1741611109.078729] [ohm:3473385:0]        ib_iface.c:1059 UCX  ERROR ibv_create_cq(cqe=256) failed: Connection timed out
[1741611109.079017] [ohm:3473344:0]        ib_iface.c:1059 UCX  ERROR ibv_create_cq(cqe=256) failed: Connection timed out
[1741611109.083898] [ohm:3473460:0]        ib_iface.c:1059 UCX  ERROR ibv_create_cq(cqe=256) failed: Connection timed out
[1741611109.097480] [ohm:3473362:0]        ib_iface.c:1059 UCX  ERROR ibv_create_cq(cqe=256) failed: Connection timed out
[1741611109.103444] [ohm:3473388:0]        ib_iface.c:1059 UCX  ERROR ibv_create_cq(cqe=256) failed: Connection timed out
[1741611109.145273] [ohm:3473405:0]        ib_iface.c:1059 UCX  ERROR ibv_create_cq(cqe=256) failed: Connection timed out
[1741611109.145271] [ohm:3473361:0]        ib_iface.c:1059 UCX  ERROR ibv_create_cq(cqe=256) failed: Connection timed out
[1741611109.146050] [ohm:3473367:0]        ib_iface.c:1059 UCX  ERROR ibv_create_cq(cqe=256) failed: Connection timed out
[1741611109.147950] [ohm:3473352:0]        ib_iface.c:1059 UCX  ERROR ibv_create_cq(cqe=256) failed: Connection timed out
[1741611109.153193] [ohm:3473363:0]        ib_iface.c:1059 UCX  ERROR ibv_create_cq(cqe=256) failed: Connection timed out
[1741611109.169113] [ohm:3473335:0]        ib_iface.c:1059 UCX  ERROR ibv_create_cq(cqe=256) failed: Connection timed out
[1741611109.173474] [ohm:3473375:0]        ib_iface.c:1059 UCX  ERROR ibv_create_cq(cqe=256) failed: Connection timed out
[1741611109.177688] [ohm:3473364:0]        ib_iface.c:1059 UCX  ERROR ibv_create_cq(cqe=256) failed: Connection timed out
[1741611109.177801] [ohm:3473342:0]        ib_iface.c:1059 UCX  ERROR ibv_create_cq(cqe=256) failed: Connection timed out
[1741611109.178076] [ohm:3473357:0]        ib_iface.c:1059 UCX  ERROR ibv_create_cq(cqe=256) failed: Connection timed out
[1741611109.178386] [ohm:3473418:0]        ib_iface.c:1059 UCX  ERROR ibv_create_cq(cqe=256) failed: Connection timed out
[1741611109.190880] [ohm:3473412:0]        ib_iface.c:1059 UCX  ERROR ibv_create_cq(cqe=256) failed: Connection timed out
[1741611109.197208] [ohm:3473337:0]        ib_iface.c:1059 UCX  ERROR ibv_create_cq(cqe=256) failed: Connection timed out
[1741611109.198276] [ohm:3473392:0]        ib_iface.c:1059 UCX  ERROR ibv_create_cq(cqe=256) failed: Connection timed out
[1741611109.199051] [ohm:3473365:0]        ib_iface.c:1059 UCX  ERROR ibv_create_cq(cqe=256) failed: Connection timed out
[1741611109.204117] [ohm:3473336:0]        ib_iface.c:1059 UCX  ERROR ibv_create_cq(cqe=256) failed: Connection timed out
[1741611109.206520] [ohm:3473402:0]        ib_iface.c:1059 UCX  ERROR ibv_create_cq(cqe=256) failed: Connection timed out
[1741611109.206586] [ohm:3473370:0]        ib_iface.c:1059 UCX  ERROR ibv_create_cq(cqe=256) failed: Connection timed out
[1741611109.208544] [ohm:3473462:0]        ib_iface.c:1059 UCX  ERROR ibv_create_cq(cqe=256) failed: Connection timed out
[1741611109.217088] [ohm:3473464:0]        ib_iface.c:1059 UCX  ERROR ibv_create_cq(cqe=256) failed: Connection timed out
[1741611109.226413] [ohm:3473366:0]        ib_iface.c:1059 UCX  ERROR ibv_create_cq(cqe=256) failed: Connection timed out
[1741611109.229397] [ohm:3473428:0]        ib_iface.c:1059 UCX  ERROR ibv_create_cq(cqe=256) failed: Connection timed out
[1741611109.236103] [ohm:3473409:0]        ib_iface.c:1059 UCX  ERROR ibv_create_cq(cqe=256) failed: Connection timed out
[1741611109.237943] [ohm:3473440:0]        ib_iface.c:1059 UCX  ERROR ibv_create_cq(cqe=256) failed: Connection timed out
[1741611109.238458] [ohm:3473423:0]        ib_iface.c:1059 UCX  ERROR ibv_create_cq(cqe=256) failed: Connection timed out
[1741611109.241576] [ohm:3473396:0]        ib_iface.c:1059 UCX  ERROR ibv_create_cq(cqe=256) failed: Connection timed out
[1741611109.242705] [ohm:3473427:0]        ib_iface.c:1059 UCX  ERROR ibv_create_cq(cqe=256) failed: Connection timed out
[1741611109.248091] [ohm:3473455:0]        ib_iface.c:1059 UCX  ERROR ibv_create_cq(cqe=256) failed: Connection timed out
[1741611109.249142] [ohm:3473452:0]        ib_iface.c:1059 UCX  ERROR ibv_create_cq(cqe=256) failed: Connection timed out
[1741611109.250888] [ohm:3473373:0]        ib_iface.c:1059 UCX  ERROR ibv_create_cq(cqe=256) failed: Connection timed out
[1741611109.252561] [ohm:3473445:0]        ib_iface.c:1059 UCX  ERROR ibv_create_cq(cqe=256) failed: Connection timed out
[1741611109.257379] [ohm:3473374:0]        ib_iface.c:1059 UCX  ERROR ibv_create_cq(cqe=256) failed: Connection timed out
[1741611109.260006] [ohm:3473400:0]        ib_iface.c:1059 UCX  ERROR ibv_create_cq(cqe=256) failed: Connection timed out
[1741611109.261066] [ohm:3473459:0]        ib_iface.c:1059 UCX  ERROR ibv_create_cq(cqe=256) failed: Connection timed out
[1741611109.261236] [ohm:3473372:0]        ib_iface.c:1059 UCX  ERROR ibv_create_cq(cqe=256) failed: Connection timed out
[1741611109.262967] [ohm:3473424:0]        ib_iface.c:1059 UCX  ERROR ibv_create_cq(cqe=256) failed: Connection timed out
[1741611109.266093] [ohm:3473431:0]        ib_iface.c:1059 UCX  ERROR ibv_create_cq(cqe=256) failed: Connection timed out
[1741611109.266527] [ohm:3473448:0]        ib_iface.c:1059 UCX  ERROR ibv_create_cq(cqe=256) failed: Connection timed out
[1741611109.266867] [ohm:3473436:0]        ib_iface.c:1059 UCX  ERROR ibv_create_cq(cqe=256) failed: Connection timed out

--------------------------------
SUGGESTED CITATIONS FOR THIS RUN
--------------------------------

Below you find a list of papers that are relevant to this ORCA run
We neither can nor want to force you to cite these papers, but we appreciate if you do
You receive ORCA, which is the product of decades of hard work by many enthusiastic individuals, for free
The only thing we kindly ask in return is that you cite our papers,
We deeply appreciate it, if you show your appreciation for ORCA by not just citing the generic ORCA reference.

Please note that relegating all ORCA citations to the supporting information does *not* help us.
SI sections are not indexed - citations you put there will not count into any citation statistics
But we need these citations in order to attract the funding resources that allow us to do what we are doing

Therefore, if you are a happy ORCA user, please consider citing a few of the papers listed below in the main body of your paper

In addition to the list printed below, the program has created the file orca.bibtex that contains the list in bibtex format
You can import this file easily into all common literature databanks and citation aid programs


List of essential papers. We consider these as the minimum necessary citations

  1. Neese,F.
     Software update: the ORCA program system, version 5.0
     WIRES Comput. Molec. Sci., 2022 12(1)e1606
     doi.org/10.1002/wcms.1606

List of papers to cite with high priority. The work reported in these papers was absolutely
necessary for this run to complete.
Our perspective: the developers of density functionals and basis sets usually get cited in chemistry papers
Good! But without the algorithms to do something with them, the functionals or basis sets would not do anything.
Hence, in our opinion, the algorithm design and method developments papers are equally worthy of getting cited

  1. Neese,F.; Olbrich,G.
     Efficient use of the resolution of the identity approximation in time-dependent density functional calculations with hybrid density functionals
     Chem. Phys. Lett., 2002 362 170-178
     doi.org/10.1016/s0009-2614(02)01053-9
  2. Neese,F.
     An improvement of the resolution of the identity approximation for the formation of the Coulomb matrix
     J. Comp. Chem., 2003 24(14)1740-1747
     doi.org/10.1002/jcc.10318
  3. Neese,F.; Wennmohs,F.; Hansen,A.; Becker,U.
     Efficient, approximate and parallel Hartree-Fock and hybrid DFT calculations. A 'chain-of-spheres' algorithm for the Hartree-Fock exchange
     Chem. Phys., 2009 356(1-3)98-109
     doi.org/10.1016/j.chemphys.2008.10.036
  4. Petrenko,T.; Kossmann,S.; Neese,F.
     Efficient time-dependent density functional theory approximations for hybrid density functionals: Analytical gradients and parallelization
     J. Chem. Phys., 2011 134 054116
     doi.org/10.1063/1.3533441
  5. Helmich-Paris,B.; de Souza,B.; Neese,F.; Izsák,R.
     An improved chain of spheres for exchange algorithm
     J. Chem. Phys., 2021 155 104109
     doi.org/doi: 10.1063/5.0058766.
  6. Neese,F.
     The SHARK Integral Generation and Digestion System
     J. Comp. Chem., 2022  1-16
     doi.org/10.1002/jcc.26942
  7. Lehtola,S.; Steigemann,C.; Oliveira,M.; Marques,M.
     Recent developments in Libxc - A comprehensive library of functionals for density functional theory
     Software X, 2018 7 
     doi.org/10.1016/j.softx.2017.11.002
  8. Grimme,S.; Antony,J.; Ehrlich,S.; Krieg,H.
     A consistent and accurate ab initio parametrization of density functional dispersion correction (DFT-D) for the 94 elements H-Pu
     J. Chem. Phys., 2010 132 154104-XXXX
     doi.org/10.1063/1.3382344
  9. Grimme,S.; Ehrlich,S.; Goerigk,L.
     Effect of the damping function in dispersion corrected density functional theory
     J. Comput. Chem., 2011 32(7)1456-1465
     doi.org/10.1002/jcc.21759

List of suggested additional citations. These are papers that are important in the 'surrounding' of 
of this run, or papers that preceded the highly important papers. If you like your results we are grateful for a citation.

  1. Izsak,R.; Neese,F.
     An overlap fitted chain of spheres exchange method
     J. Chem. Phys., 2011 135 144105
     doi.org/10.1063/1.3646921
  2. Izsak,R.; Hansen,A.; Neese,F.
     The resolution of identity and chain of spheres approximations for the LPNO-CCSD singles Fock term
     Molec. Phys., 2012 110 2413-2417
     doi.org/10.1080/00268976.2012.687466
  3. Neese,F.
     The ORCA program system
     WIRES Comput. Molec. Sci., 2012 2(1)73-78
     doi.org/10.1002/wcms.81
  4. Izsak,R.; Neese,F.; Klopper,W.
     Robust fitting techniques in the chain of spheres approximation to the Fock exchange: The role of the complementary space
     J. Chem. Phys., 2013 139 
     doi.org/10.1063/1.4819264
  5. Neese,F.
     Software update: the ORCA program system, version 4.0
     WIRES Comput. Molec. Sci., 2018 8(1)1-6
     doi.org/10.1002/wcms.1327
  6. Neese,F.; Wennmohs,F.; Becker,U.; Riplinger,C.
     The ORCA quantum chemistry program package
     J. Chem. Phys., 2020 152 Art. No. L224108
     doi.org/10.1063/5.0004608

List of optional additional citations

  1. Neese,F.
     Approximate second-order SCF convergence for spin unrestricted wavefunctions
     Chem. Phys. Lett., 2000 325(1-3)93-98
     doi.org/10.1016/s0009-2614(00)00662-x

Timings for individual modules:

Sum of individual times          ...       24.588 sec (=   0.410 min)
Startup calculation              ...        2.386 sec (=   0.040 min)   9.7 %
SCF iterations                   ...       10.278 sec (=   0.171 min)  41.8 %
Property integrals               ...        2.119 sec (=   0.035 min)   8.6 %
Property calculations            ...        1.968 sec (=   0.033 min)   8.0 %
CIS module                       ...        7.837 sec (=   0.131 min)  31.9 %
                             ****ORCA TERMINATED NORMALLY****
TOTAL RUN TIME: 0 days 0 hours 0 minutes 26 seconds 652 msec
