
                                 *****************
                                 * O   R   C   A *
                                 *****************

                                            #,                                       
                                            ###                                      
                                            ####                                     
                                            #####                                    
                                            ######                                   
                                           ########,                                 
                                     ,,################,,,,,                         
                               ,,#################################,,                 
                          ,,##########################################,,             
                       ,#########################################, ''#####,          
                    ,#############################################,,   '####,        
                  ,##################################################,,,,####,       
                ,###########''''           ''''###############################       
              ,#####''   ,,,,##########,,,,          '''####'''          '####       
            ,##' ,,,,###########################,,,                        '##       
           ' ,,###''''                  '''############,,,                           
         ,,##''                                '''############,,,,        ,,,,,,###''
      ,#''                                            '''#######################'''  
     '                                                          ''''####''''         
             ,#######,   #######,   ,#######,      ##                                
            ,#'     '#,  ##    ##  ,#'     '#,    #''#        ,####,   ,####,        
            ##       ##  ##   ,#'  ##            #'  '#       #'       #'  '#        
            ##       ##  #######   ##           ,######,      #####,   #    #        
            '#,     ,#'  ##    ##  '#,     ,#' ,#      #,     #,   #   #,  ,#        
             '#######'   ##     ##  '#######'  #'      '#     '####' # '####'        



                #########################################################
                #                        -***-                          #
                #          Department of theory and spectroscopy        #
                #                                                       #
                #                      Frank Neese                      #
                #                                                       #
                #     Directorship, Architecture, Infrastructure        #
                #                    SHARK, DRIVERS                     #
                #        Core code/Algorithms in most modules           #
                #                                                       #
                #        Max Planck Institute fuer Kohlenforschung      #
                #                Kaiser Wilhelm Platz 1                 #
                #                 D-45470 Muelheim/Ruhr                 #
                #                      Germany                          #
                #                                                       #
                #                  All rights reserved                  #
                #                        -***-                          #
                #########################################################


                         Program Version 6.0.0  -   RELEASE  -


 With contributions from (in alphabetic order):
   Daniel Aravena         : Magnetic Suceptibility
   Michael Atanasov       : Ab Initio Ligand Field Theory (pilot matlab implementation)
   Alexander A. Auer      : GIAO ZORA, VPT2 properties, NMR spectrum
   Ute Becker             : All parallelization in ORCA, NUMFREQ, NUMCALC
   Giovanni Bistoni       : ED, misc. LED, open-shell LED, HFLD
   Martin Brehm           : Molecular dynamics
   Dmytro Bykov           : pre 5.0 version of the SCF Hessian
   Marcos Casanova-Páez   : Triplet and SCS-CIS(D). UHF-(DLPNO)-IP/EA/STEOM-CCSD. UHF-CVS-IP/STEOM-CCSD
   Vijay G. Chilkuri      : MRCI spin determinant printing, contributions to CSF-ICE
   Pauline Colinet        : FMM embedding
   Dipayan Datta          : RHF DLPNO-CCSD density
   Achintya Kumar Dutta   : EOM-CC, STEOM-CC
   Nicolas Foglia         : Exact transition moments, OPA infrastructure, MCD improvements
   Dmitry Ganyushin       : Spin-Orbit,Spin-Spin,Magnetic field MRCI
   Miquel Garcia          : C-PCM and meta-GGA Hessian, CCSD/C-PCM, Gaussian charge scheme
   Tiago L. C. Gouveia    : GS-ROHF, GS-ROCIS
   Yang Guo               : DLPNO-NEVPT2, F12-NEVPT2, CIM, IAO-localization
   Andreas Hansen         : Spin unrestricted coupled pair/coupled cluster methods
   Ingolf Harden          : AUTO-CI MPn and infrastructure 
   Benjamin Helmich-Paris : MC-RPA, TRAH-(SCF,CASSCF), AVAS, COSX integrals, SCF dyn. polar.
   Lee Huntington         : MR-EOM, pCC
   Robert Izsak           : Overlap fitted RIJCOSX, COSX-SCS-MP3, EOM
   Riya Kayal             : Wick's Theorem for AUTO-CI, AUTO-CI UHF-CCSDT
   Emily Kempfer          : AUTO-CI, RHF CISDT and CCSDT
   Christian Kollmar      : KDIIS, OOCD, Brueckner-CCSD(T), CCSD density, CASPT2, CASPT2-K, improved NEVPT2
   Axel Koslowski         : Symmetry handling
   Simone Kossmann        : Meta GGA functionals, TD-DFT gradient, OOMP2, (MP2 Hessian; deprecated post 5.0)
   Lucas Lang             : DCDCAS
   Marvin Lechner         : AUTO-CI (C++ implementation), FIC-MRCC
   Spencer Leger          : CASSCF response
   Dagmar Lenk            : GEPOL surface, SMD, ORCA-2-JSON
   Dimitrios Liakos       : Extrapolation schemes; Compound Job, initial MDCI parallelization
   Dimitrios Manganas     : Further ROCIS development; embedding schemes. LFT, Crystal Embedding
   Dimitrios Pantazis     : SARC Basis sets
   Anastasios Papadopoulos: AUTO-CI, single reference methods and gradients
   Taras Petrenko         : pre 6.0 DFT Hessian and TD-DFT gradient, (ASA, deprecated), ECA, 1-Electron XAS/XES, NRVS
   Peter Pinski           : DLPNO-MP2, DLPNO-MP2 Gradient
   Christoph Reimann      : Effective Core Potentials
   Marius Retegan         : Local ZFS, SOC
   Christoph Riplinger    : Optimizer, TS searches, QM/MM, DLPNO-CCSD(T), (RO)-DLPNO pert. Triples
   Michael Roemelt        : Original ROCIS implementation
   Masaaki Saitow         : Open-shell DLPNO-CCSD energy and density
   Barbara Sandhoefer     : DKH picture change effects
   Kantharuban Sivalingam : CASSCF convergence/infrastructure, NEVPT2 and variants, FIC-MRCI
   Bernardo de Souza      : ESD, SOC TD-DFT
   Georgi Stoychev        : AutoAux, RI-MP2 NMR, DLPNO-MP2 response, X2C
   Van Anh Tran           : RI-MP2 g-tensors
   Willem Van den Heuvel  : Paramagnetic NMR
   Zikuan Wang            : NOTCH, Electric field optimization 
   Frank Wennmohs         : Technical directorship and infrastructure
   Hang Xu                : AUTO-CI-Response properties 


 We gratefully acknowledge several colleagues who have allowed us to
 interface, adapt or use parts of their codes:
   Stefan Grimme, W. Hujo, H. Kruse, P. Pracht,  : VdW corrections, initial TS optimization,
                  C. Bannwarth, S. Ehlert,         DFT functionals, gCP, sTDA/sTD-DF
                  L. Wittmann, M. Mueller
   Ed Valeev, F. Pavosevic, A. Kumar             : LibInt (2-el integral package), F12 methods
   Garnet Chan, S. Sharma, J. Yang, R. Olivares  : DMRG
   Ulf Ekstrom                                   : XCFun DFT Library
   Mihaly Kallay                                 : mrcc  (arbitrary order and MRCC methods)
   Frank Weinhold                                : gennbo (NPA and NBO analysis)
   Simon Mueller                                 : openCOSMO-RS
   Christopher J. Cramer and Donald G. Truhlar   : smd solvation model
   Lars Goerigk                                  : TD-DFT with DH, B97 family of functionals
   V. Asgeirsson, H. Jonsson                     : NEB implementation
   FAccTs GmbH                                   : IRC, NEB, NEB-TS, DLPNO-Multilevel, CI-OPT
                                                   MM, QMMM, 2- and 3-layer-ONIOM, Crystal-QMMM,
                                                   LR-CPCM, SF, NACMEs, symmetry and pop. for TD-DFT,
                                                   nearIR, NL-DFT gradient (VV10), updates on ESD,
                                                   ML-optimized integration grids, MBIS, APM,
                                                   GOAT, DOCKER, SOLVATOR, interface openCOSMO-RS
   S Lehtola, MJT Oliveira, MAL Marques          : LibXC Library
   Liviu Ungur et al                             : ANISO software


 Your calculation uses the libint2 library for the computation of 2-el integrals
 For citations please refer to: http://libint.valeyev.net

 Your ORCA version has been built with support for libXC version: 6.2.2
 For citations please refer to: https://libxc.gitlab.io

 This ORCA versions uses:
   CBLAS   interface :  Fast vector & matrix operations
   LAPACKE interface :  Fast linear algebra routines
   SCALAPACK package :  Parallel linear algebra routines
   Shared memory     :  Shared parallel matrices
   BLAS/LAPACK       :  OpenBLAS 0.3.27  USE64BITINT DYNAMIC_ARCH NO_AFFINITY Zen SINGLE_THREADED
        Core in use  :  Zen
   Copyright (c) 2011-2014, The OpenBLAS Project


Your calculation utilizes the atom-pairwise dispersion correction
with the Becke-Johnson damping scheme (D3BJ)


Warning: RI is on but no J-basis has been assigned. Assigning Def2/J (nothing to worry about!)
================================================================================

----- Orbital basis set information -----
Your calculation utilizes the basis: def2-TZVPPD
   F. Weigend and R. Ahlrichs, Phys. Chem. Chem. Phys. 7, 3297 (2005).
   D. Rappoport and F. Furche, J. Chem. Phys. 133, 134105 (2010)
   D. Rappoport, J. Chem. Phys. 155, 124102 (2021).

----- AuxJ basis set information -----
Your calculation utilizes the auxiliary basis: def2/J
   F. Weigend, Phys. Chem. Chem. Phys. 8, 1057 (2006).

================================================================================
                                        WARNINGS
                       Please study these warnings very carefully!
================================================================================

Using LibXC functional ID 531 : wB97M-V exchange-correlation functional
[ 1]  N. Mardirossian and M. Head-Gordon.,  J. Chem. Phys. 144, 214110 (2016)
Using LibXC functional ID 531 : wB97M-V exchange-correlation functional
[ 1]  N. Mardirossian and M. Head-Gordon.,  J. Chem. Phys. 144, 214110 (2016)

WARNING: B97M-V or wB97M-V functional requested.
  ===> : libXC variant has now been activated.
         Any manually given DFX/HFX/RangeSep scaling parameters are IGNORED!

Your calculation utilizes LibXC
 by S Lehtola, C Steigemann, MJT Oliveira & MAL Marques
Please cite in your paper:
 S Lehtola, C Steigemann, MJT Oliveira & MAL Marques, SoftwareX, 7, (2018), 1.
   


WARNING: your system is open-shell and RHF/RKS was chosen
  ===> : WILL SWITCH to UHF/UKS

INFO   : Checking CIS options ...

WARNING: CIS/ROCIS methods need fully converged wavefunctions
  ===> : Setting SCFConvForced true
         You can overwrite this default with %scf ConvForced false 


================================================================================
                                       INPUT FILE
================================================================================
NAME = orca.inp
|  1> ! Engrad def2-TZVPPD wB97M-D3BJ 
|  2> %pal nprocs 8 end%pal nprocs 64 end 
|  3> %tddft Nroots 2 Iroot 2 
|  4> sf true 
|  5> end 
|  6> *xyz 0 3 
|  7> O   3.43893923 0.5714854 -0.52118523
|  8> O   -1.40649082 1.27622094 -2.51383578
|  9> O   0.52726648 -2.86885047 -0.95410389
| 10> O   -3.15547241 -1.67338703 0.37582474
| 11> N   0.29158846 -1.43188671 0.87565592
| 12> N   -2.03737504 0.14763083 1.19008686
| 13> N   1.7133405 -0.86126618 -0.83808204
| 14> N   -1.84093267 -0.39437445 -1.02160701
| 15> C   1.8183693 0.42616152 1.21193957
| 16> C   -0.6604624 1.51945397 -0.26335416
| 17> C   0.44687392 -0.13779714 1.50976108
| 18> C   -0.8068208 0.91871797 1.06492932
| 19> C   2.35144891 1.50321073 2.03133933
| 20> C   -0.03764343 2.86559752 -0.4744193
| 21> C   2.40958444 0.07691262 -0.05915634
| 22> C   -1.34791652 0.87214963 -1.34896506
| 23> C   0.7845489 -1.8561257 -0.34624457
| 24> C   -2.40638192 -0.72529442 0.20775527
| 25> H   0.28510928 -0.26060749 2.59065436
| 26> H   -0.75162875 1.71033328 1.83077593
| 27> H   2.90108572 2.24469802 1.45603469
| 28> H   1.54135582 2.09864529 2.58725458
| 29> H   3.02143613 1.14543254 2.77478691
| 30> H   -0.64961655 3.55246378 0.12491097
| 31> H   0.98110665 2.94479273 -0.05517187
| 32> H   0.03744644 3.08115739 -1.57601541
| 33> H   -0.48961109 -1.97983063 1.16073646
| 34> H   -2.46660441 0.05316753 2.09648809
| 35> H   2.31224657 -1.12343808 -1.62985438
| 36> H   -2.224194 -0.99818274 -1.79498904
| 37> *
| 38> 
| 39>                          ****END OF INPUT****
================================================================================

                     *******************************
                     * Energy+Gradient Calculation *
                     *******************************

---------------------------------
CARTESIAN COORDINATES (ANGSTROEM)
---------------------------------
  O      3.438939    0.571485   -0.521185
  O     -1.406491    1.276221   -2.513836
  O      0.527266   -2.868850   -0.954104
  O     -3.155472   -1.673387    0.375825
  N      0.291588   -1.431887    0.875656
  N     -2.037375    0.147631    1.190087
  N      1.713340   -0.861266   -0.838082
  N     -1.840933   -0.394374   -1.021607
  C      1.818369    0.426162    1.211940
  C     -0.660462    1.519454   -0.263354
  C      0.446874   -0.137797    1.509761
  C     -0.806821    0.918718    1.064929
  C      2.351449    1.503211    2.031339
  C     -0.037643    2.865598   -0.474419
  C      2.409584    0.076913   -0.059156
  C     -1.347917    0.872150   -1.348965
  C      0.784549   -1.856126   -0.346245
  C     -2.406382   -0.725294    0.207755
  H      0.285109   -0.260607    2.590654
  H     -0.751629    1.710333    1.830776
  H      2.901086    2.244698    1.456035
  H      1.541356    2.098645    2.587255
  H      3.021436    1.145433    2.774787
  H     -0.649617    3.552464    0.124911
  H      0.981107    2.944793   -0.055172
  H      0.037446    3.081157   -1.576015
  H     -0.489611   -1.979831    1.160736
  H     -2.466604    0.053168    2.096488
  H      2.312247   -1.123438   -1.629854
  H     -2.224194   -0.998183   -1.794989

----------------------------
CARTESIAN COORDINATES (A.U.)
----------------------------
  NO LB      ZA    FRAG     MASS         X           Y           Z
   0 O     8.0000    0    15.999    6.498653    1.079951   -0.984897
   1 O     8.0000    0    15.999   -2.657882    2.411708   -4.750461
   2 O     8.0000    0    15.999    0.996389   -5.421342   -1.802995
   3 O     8.0000    0    15.999   -5.962979   -3.162243    0.710206
   4 N     7.0000    0    14.007    0.551022   -2.705874    1.654750
   5 N     7.0000    0    14.007   -3.850081    0.278982    2.248938
   6 N     7.0000    0    14.007    3.237744   -1.627557   -1.583746
   7 N     7.0000    0    14.007   -3.478859   -0.745260   -1.930557
   8 C     6.0000    0    12.011    3.436220    0.805329    2.290234
   9 C     6.0000    0    12.011   -1.248093    2.871352   -0.497667
  10 C     6.0000    0    12.011    0.844469   -0.260399    2.853035
  11 C     6.0000    0    12.011   -1.524670    1.736125    2.012425
  12 C     6.0000    0    12.011    4.443594    2.840657    3.838675
  13 C     6.0000    0    12.011   -0.071136    5.415195   -0.896523
  14 C     6.0000    0    12.011    4.553455    0.145344   -0.111789
  15 C     6.0000    0    12.011   -2.547193    1.648124   -2.549175
  16 C     6.0000    0    12.011    1.482583   -3.507569   -0.654307
  17 C     6.0000    0    12.011   -4.547403   -1.370608    0.392601
  18 H     1.0000    0     1.008    0.538778   -0.492477    4.895627
  19 H     1.0000    0     1.008   -1.420372    3.232061    3.459665
  20 H     1.0000    0     1.008    5.482258    4.241865    2.751507
  21 H     1.0000    0     1.008    2.912740    3.965865    4.889203
  22 H     1.0000    0     1.008    5.709687    2.164554    5.243587
  23 H     1.0000    0     1.008   -1.227597    6.713184    0.236048
  24 H     1.0000    0     1.008    1.854023    5.564852   -0.104260
  25 H     1.0000    0     1.008    0.070764    5.822544   -2.978238
  26 H     1.0000    0     1.008   -0.925231   -3.741338    2.193474
  27 H     1.0000    0     1.008   -4.661207    0.100472    3.961788
  28 H     1.0000    0     1.008    4.369513   -2.122990   -3.079978
  29 H     1.0000    0     1.008   -4.203118   -1.886292   -3.392038

--------------------------------
INTERNAL COORDINATES (ANGSTROEM)
--------------------------------
 O      0   0   0     0.000000000000     0.00000000     0.00000000
 O      1   0   0     5.286350420205     0.00000000     0.00000000
 O      1   2   0     4.527821514556    58.38737618     0.00000000
 O      3   1   2     4.093947817106   108.99815621   315.09946298
 N      3   1   2     2.338467433803    61.51648195   279.94980836
 N      4   3   1     2.286759842071    84.74285149   348.82788431
 N      1   2   3     2.265147159714    48.18895439   358.14181350
 N      2   1   3     2.281748316563    80.23531609    32.84384549
 C      1   2   3     2.377201611242    70.00795881   287.14481615
 C      8   2   1     2.373014257034    61.56069326    50.63283477
 C      5   3   1     1.449438078432   151.65996699    27.71834309
 C      6   4   3     1.457567674200   143.46506831    19.37183300
 C      9   1   2     1.454518765107    96.63823296   238.40163694
 C     10   8   2     1.498183707000   152.42872371     0.10987769
 C      1   2   3     1.231927032582    55.18127368   316.50815139
 C      2   1   3     1.234353420419    63.71349334    61.85911838
 C      3   1   2     1.208841865723    34.76523540   288.94617410
 C      4   3   1     1.219944058591    68.27337100    14.15561723
 H     11   5   3     1.099809285090   108.33087992   193.37092558
 H     12   6   4     1.102824551530   111.24509734   185.60330056
 H     13   9   1     1.087602617202   113.08270866    26.58472798
 H     13   9   1     1.148840674285   113.45032767   146.03797927
 H     13   9   1     1.062827555350   112.07546100   266.42655413
 H     14  10   8     1.097949512167   104.68416737   113.28375353
 H     14  10   8     1.104487217829   113.22829645   227.31686877
 H     14  10   8     1.124997126973   109.74667454   347.10179849
 H      5   3   1     0.995884627189    87.99114741   179.79842985
 H      6   4   3     1.007335275300    92.14227767   229.09100831
 H      7   1   2     1.026803790518    79.92363311   102.70184931
 H      8   2   1     1.053372423444    90.50445064   237.09743529

---------------------------
INTERNAL COORDINATES (A.U.)
---------------------------
 O      0   0   0     0.000000000000     0.00000000     0.00000000
 O      1   0   0     9.989754542126     0.00000000     0.00000000
 O      1   2   0     8.556342645788    58.38737618     0.00000000
 O      3   1   2     7.736440180895   108.99815621   315.09946298
 N      3   1   2     4.419063022981    61.51648195   279.94980836
 N      4   3   1     4.321349835562    84.74285149   348.82788431
 N      1   2   3     4.280507784888    48.18895439   358.14181350
 N      2   1   3     4.311879424839    80.23531609    32.84384549
 C      1   2   3     4.492260010364    70.00795881   287.14481615
 C      8   2   1     4.484347057685    61.56069326    50.63283477
 C      5   3   1     2.739041016314   151.65996699    27.71834309
 C      6   4   3     2.754403725895   143.46506831    19.37183300
 C      9   1   2     2.748642122701    96.63823296   238.40163694
 C     10   8   2     2.831156904534   152.42872371     0.10987769
 C      1   2   3     2.328004708555    55.18127368   316.50815139
 C      2   1   3     2.332589917060    63.71349334    61.85911838
 C      3   1   2     2.284380065434    34.76523540   288.94617410
 C      4   3   1     2.305360169441    68.27337100    14.15561723
 H     11   5   3     2.078338348364   108.33087992   193.37092558
 H     12   6   4     2.084036376157   111.24509734   185.60330056
 H     13   9   1     2.055271089047   113.08270866    26.58472798
 H     13   9   1     2.170994245907   113.45032767   146.03797927
 H     13   9   1     2.008453007196   112.07546100   266.42655413
 H     14  10   8     2.074823886868   104.68416737   113.28375353
 H     14  10   8     2.087178360114   113.22829645   227.31686877
 H     14  10   8     2.125936471428   109.74667454   347.10179849
 H      5   3   1     1.881949206370    87.99114741   179.79842985
 H      6   4   3     1.903587795354    92.14227767   229.09100831
 H      7   1   2     1.940377957351    79.92363311   102.70184931
 H      8   2   1     1.990585397335    90.50445064   237.09743529

---------------------
BASIS SET INFORMATION
---------------------
There are 4 groups of distinct atoms

 Group   1 Type O   : 12s7p3d1f contracted to 6s4p3d1f pattern {621111/4111/111/1}
 Group   2 Type N   : 12s6p3d1f contracted to 6s3p3d1f pattern {621111/411/111/1}
 Group   3 Type C   : 12s6p3d1f contracted to 6s3p3d1f pattern {621111/411/111/1}
 Group   4 Type H   : 5s3p1d contracted to 3s3p1d pattern {311/111/1}

Atom   0O    basis set group =>   1
Atom   1O    basis set group =>   1
Atom   2O    basis set group =>   1
Atom   3O    basis set group =>   1
Atom   4N    basis set group =>   2
Atom   5N    basis set group =>   2
Atom   6N    basis set group =>   2
Atom   7N    basis set group =>   2
Atom   8C    basis set group =>   3
Atom   9C    basis set group =>   3
Atom  10C    basis set group =>   3
Atom  11C    basis set group =>   3
Atom  12C    basis set group =>   3
Atom  13C    basis set group =>   3
Atom  14C    basis set group =>   3
Atom  15C    basis set group =>   3
Atom  16C    basis set group =>   3
Atom  17C    basis set group =>   3
Atom  18H    basis set group =>   4
Atom  19H    basis set group =>   4
Atom  20H    basis set group =>   4
Atom  21H    basis set group =>   4
Atom  22H    basis set group =>   4
Atom  23H    basis set group =>   4
Atom  24H    basis set group =>   4
Atom  25H    basis set group =>   4
Atom  26H    basis set group =>   4
Atom  27H    basis set group =>   4
Atom  28H    basis set group =>   4
Atom  29H    basis set group =>   4
---------------------------------
AUXILIARY/J BASIS SET INFORMATION
---------------------------------
There are 4 groups of distinct atoms

 Group   1 Type O   : 12s5p4d2f1g contracted to 6s4p3d1f1g pattern {711111/2111/211/2/1}
 Group   2 Type N   : 12s5p4d2f1g contracted to 6s4p3d1f1g pattern {711111/2111/211/2/1}
 Group   3 Type C   : 12s5p4d2f1g contracted to 6s4p3d1f1g pattern {711111/2111/211/2/1}
 Group   4 Type H   : 5s2p1d contracted to 3s1p1d pattern {311/2/1}

Atom   0O    basis set group =>   1
Atom   1O    basis set group =>   1
Atom   2O    basis set group =>   1
Atom   3O    basis set group =>   1
Atom   4N    basis set group =>   2
Atom   5N    basis set group =>   2
Atom   6N    basis set group =>   2
Atom   7N    basis set group =>   2
Atom   8C    basis set group =>   3
Atom   9C    basis set group =>   3
Atom  10C    basis set group =>   3
Atom  11C    basis set group =>   3
Atom  12C    basis set group =>   3
Atom  13C    basis set group =>   3
Atom  14C    basis set group =>   3
Atom  15C    basis set group =>   3
Atom  16C    basis set group =>   3
Atom  17C    basis set group =>   3
Atom  18H    basis set group =>   4
Atom  19H    basis set group =>   4
Atom  20H    basis set group =>   4
Atom  21H    basis set group =>   4
Atom  22H    basis set group =>   4
Atom  23H    basis set group =>   4
Atom  24H    basis set group =>   4
Atom  25H    basis set group =>   4
Atom  26H    basis set group =>   4
Atom  27H    basis set group =>   4
Atom  28H    basis set group =>   4
Atom  29H    basis set group =>   4
[1739916211.806204] [ohm:523263:0]        ib_iface.c:1059 UCX  ERROR ibv_create_cq(cqe=256) failed: Connection timed out
[1739916211.810189] [ohm:523254:0]        ib_iface.c:1059 UCX  ERROR ibv_create_cq(cqe=256) failed: Connection timed out
[1739916211.811998] [ohm:523251:0]        ib_iface.c:1059 UCX  ERROR ibv_create_cq(cqe=256) failed: Connection timed out
[1739916211.831414] [ohm:523325:0]        ib_iface.c:1059 UCX  ERROR ibv_create_cq(cqe=256) failed: Connection timed out
[1739916211.833108] [ohm:523257:0]        ib_iface.c:1059 UCX  ERROR ibv_create_cq(cqe=256) failed: Connection timed out
[1739916211.833644] [ohm:523283:0]        ib_iface.c:1059 UCX  ERROR ibv_create_cq(cqe=256) failed: Connection timed out
[1739916211.838653] [ohm:523253:0]        ib_iface.c:1059 UCX  ERROR ibv_create_cq(cqe=256) failed: Connection timed out
[1739916211.841373] [ohm:523255:0]        ib_iface.c:1059 UCX  ERROR ibv_create_cq(cqe=256) failed: Connection timed out
[1739916211.846848] [ohm:523260:0]        ib_iface.c:1059 UCX  ERROR ibv_create_cq(cqe=256) failed: Connection timed out
[1739916211.882193] [ohm:523259:0]        ib_iface.c:1059 UCX  ERROR ibv_create_cq(cqe=256) failed: Connection timed out
[1739916211.885105] [ohm:523351:0]        ib_iface.c:1059 UCX  ERROR ibv_create_cq(cqe=256) failed: Connection timed out
[1739916211.910348] [ohm:523311:0]        ib_iface.c:1059 UCX  ERROR ibv_create_cq(cqe=256) failed: Connection timed out
[1739916211.913847] [ohm:523261:0]        ib_iface.c:1059 UCX  ERROR ibv_create_cq(cqe=256) failed: Connection timed out
[1739916211.917115] [ohm:523264:0]        ib_iface.c:1059 UCX  ERROR ibv_create_cq(cqe=256) failed: Connection timed out
[1739916211.930103] [ohm:523307:0]        ib_iface.c:1059 UCX  ERROR ibv_create_cq(cqe=256) failed: Connection timed out
[1739916211.945421] [ohm:523384:0]        ib_iface.c:1059 UCX  ERROR ibv_create_cq(cqe=256) failed: Connection timed out
[1739916211.953495] [ohm:523256:0]        ib_iface.c:1059 UCX  ERROR ibv_create_cq(cqe=256) failed: Connection timed out
[1739916211.955141] [ohm:523298:0]        ib_iface.c:1059 UCX  ERROR ibv_create_cq(cqe=256) failed: Connection timed out
[1739916211.957827] [ohm:523390:0]        ib_iface.c:1059 UCX  ERROR ibv_create_cq(cqe=256) failed: Connection timed out
[1739916211.965076] [ohm:523252:0]        ib_iface.c:1059 UCX  ERROR ibv_create_cq(cqe=256) failed: Connection timed out
[1739916211.965546] [ohm:523302:0]        ib_iface.c:1059 UCX  ERROR ibv_create_cq(cqe=256) failed: Connection timed out
[1739916211.968324] [ohm:523317:0]        ib_iface.c:1059 UCX  ERROR ibv_create_cq(cqe=256) failed: Connection timed out
[1739916211.969638] [ohm:523258:0]        ib_iface.c:1059 UCX  ERROR ibv_create_cq(cqe=256) failed: Connection timed out
[1739916211.970387] [ohm:523265:0]        ib_iface.c:1059 UCX  ERROR ibv_create_cq(cqe=256) failed: Connection timed out
[1739916211.971142] [ohm:523313:0]        ib_iface.c:1059 UCX  ERROR ibv_create_cq(cqe=256) failed: Connection timed out
[1739916211.974630] [ohm:523376:0]        ib_iface.c:1059 UCX  ERROR ibv_create_cq(cqe=256) failed: Connection timed out
[1739916211.988076] [ohm:523379:0]        ib_iface.c:1059 UCX  ERROR ibv_create_cq(cqe=256) failed: Connection timed out
[1739916211.990301] [ohm:523333:0]        ib_iface.c:1059 UCX  ERROR ibv_create_cq(cqe=256) failed: Connection timed out
[1739916212.026846] [ohm:523364:0]        ib_iface.c:1059 UCX  ERROR ibv_create_cq(cqe=256) failed: Connection timed out
[1739916212.037419] [ohm:523395:0]        ib_iface.c:1059 UCX  ERROR ibv_create_cq(cqe=256) failed: Connection timed out
[1739916212.041553] [ohm:523357:0]        ib_iface.c:1059 UCX  ERROR ibv_create_cq(cqe=256) failed: Connection timed out
[1739916212.047616] [ohm:523314:0]        ib_iface.c:1059 UCX  ERROR ibv_create_cq(cqe=256) failed: Connection timed out
[1739916212.051156] [ohm:523281:0]        ib_iface.c:1059 UCX  ERROR ibv_create_cq(cqe=256) failed: Connection timed out
[1739916212.051916] [ohm:523339:0]        ib_iface.c:1059 UCX  ERROR ibv_create_cq(cqe=256) failed: Connection timed out
[1739916212.065120] [ohm:523389:0]        ib_iface.c:1059 UCX  ERROR ibv_create_cq(cqe=256) failed: Connection timed out
[1739916212.065418] [ohm:523262:0]        ib_iface.c:1059 UCX  ERROR ibv_create_cq(cqe=256) failed: Connection timed out
[1739916212.072515] [ohm:523316:0]        ib_iface.c:1059 UCX  ERROR ibv_create_cq(cqe=256) failed: Connection timed out
[1739916212.075729] [ohm:523292:0]        ib_iface.c:1059 UCX  ERROR ibv_create_cq(cqe=256) failed: Connection timed out
[1739916212.076821] [ohm:523321:0]        ib_iface.c:1059 UCX  ERROR ibv_create_cq(cqe=256) failed: Connection timed out
[1739916212.095492] [ohm:523331:0]        ib_iface.c:1059 UCX  ERROR ibv_create_cq(cqe=256) failed: Connection timed out
[1739916212.100428] [ohm:523327:0]        ib_iface.c:1059 UCX  ERROR ibv_create_cq(cqe=256) failed: Connection timed out
[1739916212.110218] [ohm:523343:0]        ib_iface.c:1059 UCX  ERROR ibv_create_cq(cqe=256) failed: Connection timed out
[1739916212.115577] [ohm:523382:0]        ib_iface.c:1059 UCX  ERROR ibv_create_cq(cqe=256) failed: Connection timed out
[1739916212.121844] [ohm:523310:0]        ib_iface.c:1059 UCX  ERROR ibv_create_cq(cqe=256) failed: Connection timed out
[1739916212.123171] [ohm:523280:0]        ib_iface.c:1059 UCX  ERROR ibv_create_cq(cqe=256) failed: Connection timed out
[1739916212.125485] [ohm:523356:0]        ib_iface.c:1059 UCX  ERROR ibv_create_cq(cqe=256) failed: Connection timed out
[1739916212.126716] [ohm:523401:0]        ib_iface.c:1059 UCX  ERROR ibv_create_cq(cqe=256) failed: Connection timed out
[1739916212.127010] [ohm:523319:0]        ib_iface.c:1059 UCX  ERROR ibv_create_cq(cqe=256) failed: Connection timed out
[1739916212.136502] [ohm:523287:0]        ib_iface.c:1059 UCX  ERROR ibv_create_cq(cqe=256) failed: Connection timed out
[1739916212.138230] [ohm:523372:0]        ib_iface.c:1059 UCX  ERROR ibv_create_cq(cqe=256) failed: Connection timed out
[1739916212.139065] [ohm:523397:0]        ib_iface.c:1059 UCX  ERROR ibv_create_cq(cqe=256) failed: Connection timed out
[1739916212.140945] [ohm:523305:0]        ib_iface.c:1059 UCX  ERROR ibv_create_cq(cqe=256) failed: Connection timed out
[1739916212.141142] [ohm:523361:0]        ib_iface.c:1059 UCX  ERROR ibv_create_cq(cqe=256) failed: Connection timed out
[1739916212.143399] [ohm:523369:0]        ib_iface.c:1059 UCX  ERROR ibv_create_cq(cqe=256) failed: Connection timed out
[1739916212.145203] [ohm:523335:0]        ib_iface.c:1059 UCX  ERROR ibv_create_cq(cqe=256) failed: Connection timed out
[1739916212.146790] [ohm:523352:0]        ib_iface.c:1059 UCX  ERROR ibv_create_cq(cqe=256) failed: Connection timed out
[1739916212.150065] [ohm:523348:0]        ib_iface.c:1059 UCX  ERROR ibv_create_cq(cqe=256) failed: Connection timed out
[1739916212.150249] [ohm:523286:0]        ib_iface.c:1059 UCX  ERROR ibv_create_cq(cqe=256) failed: Connection timed out
[1739916212.151990] [ohm:523291:0]        ib_iface.c:1059 UCX  ERROR ibv_create_cq(cqe=256) failed: Connection timed out
[1739916212.153075] [ohm:523284:0]        ib_iface.c:1059 UCX  ERROR ibv_create_cq(cqe=256) failed: Connection timed out
[1739916212.153330] [ohm:523315:0]        ib_iface.c:1059 UCX  ERROR ibv_create_cq(cqe=256) failed: Connection timed out
[1739916212.154593] [ohm:523312:0]        ib_iface.c:1059 UCX  ERROR ibv_create_cq(cqe=256) failed: Connection timed out
[1739916212.154710] [ohm:523282:0]        ib_iface.c:1059 UCX  ERROR ibv_create_cq(cqe=256) failed: Connection timed out
[1739916212.155140] [ohm:523296:0]        ib_iface.c:1059 UCX  ERROR ibv_create_cq(cqe=256) failed: Connection timed out


           ************************************************************
           *        Program running with 64 parallel MPI-processes    *
           *              working on a common directory               *
           ************************************************************
------------------------------------------------------------------------------
                             ORCA STARTUP CALCULATIONS
                           -- RI-GTO INTEGRALS CHOSEN --
------------------------------------------------------------------------------
------------------------------------------------------------------------------
                   ___                                                        
                  /   \      - P O W E R E D   B Y -                         
                 /     \                                                     
                 |  |  |   _    _      __       _____    __    __             
                 |  |  |  | |  | |    /  \     |  _  \  |  |  /  |          
                  \  \/   | |  | |   /    \    | | | |  |  | /  /          
                 / \  \   | |__| |  /  /\  \   | |_| |  |  |/  /          
                |  |  |   |  __  | /  /__\  \  |    /   |      \           
                |  |  |   | |  | | |   __   |  |    \   |  |\   \          
                \     /   | |  | | |  |  |  |  | |\  \  |  | \   \       
                 \___/    |_|  |_| |__|  |__|  |_| \__\ |__|  \__/        
                                                                              
                      - O R C A' S   B I G   F R I E N D -                    
                                      &                                       
                       - I N T E G R A L  F E E D E R -                       
                                                                              
 v1 FN, 2020, v2 2021, v3 2022-2024                                           
------------------------------------------------------------------------------


----------------------
SHARK INTEGRAL PACKAGE
----------------------

Number of atoms                             ...     30
Number of basis functions                   ...    882
Number of shells                            ...    322
Maximum angular momentum                    ...      3
Integral batch strategy                     ... SHARK/LIBINT Hybrid
RI-J (if used) integral strategy            ... SPLIT-RIJ (Revised 2003 algorithm where possible)
Printlevel                                  ...      1
Contraction scheme used                     ... SEGMENTED contraction
Prescreening option                         ... SCHWARTZ
   Thresh                                   ... 2.500e-11
   Tcut                                     ... 2.500e-12
   Tpresel                                  ... 2.500e-12 
Coulomb Range Separation                    ... NOT USED
Exchange Range Separation                   ... Long Range
   Mu parameter                             ... 3.000e-01
   Scaling (regular/separated)              ... 1.500e-01 8.500e-01
Multipole approximations                    ... NOT USED
Finite Nucleus Model                        ... NOT USED
CABS basis                                  ... NOT available
Auxiliary Coulomb fitting basis             ... AVAILABLE
   # of basis functions in Aux-J            ...   1014
   # of shells in Aux-J                     ...    330
   Maximum angular momentum in Aux-J        ...      4
Auxiliary J/K fitting basis                 ... NOT available
Auxiliary Correlation fitting basis         ... NOT available
Auxiliary 'external' fitting basis          ... NOT available

Checking pre-screening integrals            ... done (  0.0 sec) Dimension = 322
Check shell pair data                       ... done (  0.0 sec)
Shell pair information
Shell pair cut-off parameter TPreSel        ...   2.5e-12
Total number of shell pairs                 ...     52003
Shell pairs after pre-screening             ...     44991
Total number of primitive shell pairs       ...    129718
Primitive shell pairs kept                  ...     84069
          la=0 lb=0:   8713 shell pairs
          la=1 lb=0:  11899 shell pairs
          la=1 lb=1:   4110 shell pairs
          la=2 lb=0:   8092 shell pairs
          la=2 lb=1:   5585 shell pairs
          la=2 lb=2:   1929 shell pairs
          la=3 lb=0:   2060 shell pairs
          la=3 lb=1:   1468 shell pairs
          la=3 lb=2:    994 shell pairs
          la=3 lb=3:    141 shell pairs

Calculating one electron integrals          ... done (  0.2 sec)
Calculating RI/J V-Matrix + Cholesky decomp.... done (  0.1 sec)
Calculating Nuclear repulsion               ... done (  0.0 sec) ENN=   1439.177360810342 Eh

Diagonalization of the overlap matrix:
Smallest eigenvalue                        ... 5.772e-07
Time for diagonalization                   ...    0.123 sec
Threshold for overlap eigenvalues          ... 1.000e-07
Number of eigenvalues below threshold      ... 0

IMPORTANT:
Smallest eigenvalue of S below the DiffSThresh (1.000e-06) while
Thresh>1e-12 and/or TCut>1e-13! In order to avoid SCF convergence issues,
Thresh will be set to at least 1e-12 and TCut to at least 1e-13.
This can be turned off by adding %SCF DiffSThresh -1 END to the input.

Time for construction of square roots      ...    0.131 sec
Total time needed                          ...    0.269 sec

-------------------
DFT GRID GENERATION
-------------------

General Integration Accuracy     IntAcc      ... 4.388
Radial Grid Type                 RadialGrid  ... OptM3 with GC (2021)
Angular Grid (max. ang.)         AngularGrid ... 4 (Lebedev-302)
Angular grid pruning method      GridPruning ... 4 (adaptive)
Weight generation scheme         WeightScheme... mBecke (2022)
Basis function cutoff            BFCut       ... 1.0000e-11
Integration weight cutoff        WCut        ... 1.0000e-14
Partially contracted basis set               ... off
Rotationally invariant grid construction     ... off
Angular grids for H and He will be reduced by one unit
Diffuse basis detected: some atoms will have their outermost
                        angular grid increased by 1.

Total number of grid points                  ...   152019
Total number of batches                      ...     2387
Average number of points per batch           ...       63
Average number of grid points per atom       ...     5067

--------------------
COSX GRID GENERATION
--------------------

GRIDX 1
-------
General Integration Accuracy     IntAcc      ... 3.816
Radial Grid Type                 RadialGrid  ... OptM3 with GC (2021)
Angular Grid (max. ang.)         AngularGrid ... 1 (Lebedev-50)
Angular grid pruning method      GridPruning ... 4 (adaptive)
Weight generation scheme         WeightScheme... mBecke (2022)
Basis function cutoff            BFCut       ... 1.0000e-11
Integration weight cutoff        WCut        ... 1.0000e-14
Partially contracted basis set               ... on
Rotationally invariant grid construction     ... off
Angular grids for H and He will be reduced by one unit
Diffuse basis detected: some atoms will have their outermost
                        angular grid increased by 1.

Total number of grid points                  ...    19039
Total number of batches                      ...      163
Average number of points per batch           ...      116
Average number of grid points per atom       ...      635
UseSFitting                                  ... on

GRIDX 2
-------
General Integration Accuracy     IntAcc      ... 4.020
Radial Grid Type                 RadialGrid  ... OptM3 with GC (2021)
Angular Grid (max. ang.)         AngularGrid ... 2 (Lebedev-110)
Angular grid pruning method      GridPruning ... 4 (adaptive)
Weight generation scheme         WeightScheme... mBecke (2022)
Basis function cutoff            BFCut       ... 1.0000e-11
Integration weight cutoff        WCut        ... 1.0000e-14
Partially contracted basis set               ... on
Rotationally invariant grid construction     ... off
Angular grids for H and He will be reduced by one unit
Diffuse basis detected: some atoms will have their outermost
                        angular grid increased by 1.

Total number of grid points                  ...    45905
Total number of batches                      ...      373
Average number of points per batch           ...      123
Average number of grid points per atom       ...     1530
UseSFitting                                  ... on

GRIDX 3
-------
General Integration Accuracy     IntAcc      ... 4.338
Radial Grid Type                 RadialGrid  ... OptM3 with GC (2021)
Angular Grid (max. ang.)         AngularGrid ... 3 (Lebedev-194)
Angular grid pruning method      GridPruning ... 4 (adaptive)
Weight generation scheme         WeightScheme... mBecke (2022)
Basis function cutoff            BFCut       ... 1.0000e-11
Integration weight cutoff        WCut        ... 1.0000e-14
Partially contracted basis set               ... on
Rotationally invariant grid construction     ... off
Angular grids for H and He will be reduced by one unit
Diffuse basis detected: some atoms will have their outermost
                        angular grid increased by 1.

Total number of grid points                  ...   101015
Total number of batches                      ...      807
Average number of points per batch           ...      125
Average number of grid points per atom       ...     3367
UseSFitting                                  ... on
Initializing property integral containers    ... done (  0.0 sec)

SHARK setup successfully completed in   4.2 seconds

Maximum memory used throughout the entire STARTUP-calculation: 80.1 MB
[1739916218.155917] [ohm:523621:0]        ib_iface.c:1059 UCX  ERROR ibv_create_cq(cqe=256) failed: Connection timed out
[1739916218.162803] [ohm:523615:0]        ib_iface.c:1059 UCX  ERROR ibv_create_cq(cqe=256) failed: Connection timed out
[1739916218.173903] [ohm:523609:0]        ib_iface.c:1059 UCX  ERROR ibv_create_cq(cqe=256) failed: Connection timed out
[1739916218.174690] [ohm:523612:0]        ib_iface.c:1059 UCX  ERROR ibv_create_cq(cqe=256) failed: Connection timed out
[1739916218.176231] [ohm:523619:0]        ib_iface.c:1059 UCX  ERROR ibv_create_cq(cqe=256) failed: Connection timed out
[1739916218.231413] [ohm:523610:0]        ib_iface.c:1059 UCX  ERROR ibv_create_cq(cqe=256) failed: Connection timed out
[1739916218.232336] [ohm:523681:0]        ib_iface.c:1059 UCX  ERROR ibv_create_cq(cqe=256) failed: Connection timed out
[1739916218.235761] [ohm:523737:0]        ib_iface.c:1059 UCX  ERROR ibv_create_cq(cqe=256) failed: Connection timed out
[1739916218.237416] [ohm:523626:0]        ib_iface.c:1059 UCX  ERROR ibv_create_cq(cqe=256) failed: Connection timed out
[1739916218.239467] [ohm:523627:0]        ib_iface.c:1059 UCX  ERROR ibv_create_cq(cqe=256) failed: Connection timed out
[1739916218.241613] [ohm:523697:0]        ib_iface.c:1059 UCX  ERROR ibv_create_cq(cqe=256) failed: Connection timed out
[1739916218.256397] [ohm:523751:0]        ib_iface.c:1059 UCX  ERROR ibv_create_cq(cqe=256) failed: Connection timed out
[1739916218.265628] [ohm:523733:0]        ib_iface.c:1059 UCX  ERROR ibv_create_cq(cqe=256) failed: Connection timed out
[1739916218.295757] [ohm:523641:0]        ib_iface.c:1059 UCX  ERROR ibv_create_cq(cqe=256) failed: Connection timed out
[1739916218.295915] [ohm:523636:0]        ib_iface.c:1059 UCX  ERROR ibv_create_cq(cqe=256) failed: Connection timed out
[1739916218.308827] [ohm:523667:0]        ib_iface.c:1059 UCX  ERROR ibv_create_cq(cqe=256) failed: Connection timed out
[1739916218.323555] [ohm:523631:0]        ib_iface.c:1059 UCX  ERROR ibv_create_cq(cqe=256) failed: Connection timed out
[1739916218.341789] [ohm:523739:0]        ib_iface.c:1059 UCX  ERROR ibv_create_cq(cqe=256) failed: Connection timed out
[1739916218.347314] [ohm:523624:0]        ib_iface.c:1059 UCX  ERROR ibv_create_cq(cqe=256) failed: Connection timed out
[1739916218.348196] [ohm:523637:0]        ib_iface.c:1059 UCX  ERROR ibv_create_cq(cqe=256) failed: Connection timed out
[1739916218.356510] [ohm:523744:0]        ib_iface.c:1059 UCX  ERROR ibv_create_cq(cqe=256) failed: Connection timed out
[1739916218.360547] [ohm:523616:0]        ib_iface.c:1059 UCX  ERROR ibv_create_cq(cqe=256) failed: Connection timed out
[1739916218.361854] [ohm:523658:0]        ib_iface.c:1059 UCX  ERROR ibv_create_cq(cqe=256) failed: Connection timed out
[1739916218.368941] [ohm:523611:0]        ib_iface.c:1059 UCX  ERROR ibv_create_cq(cqe=256) failed: Connection timed out
[1739916218.371387] [ohm:523614:0]        ib_iface.c:1059 UCX  ERROR ibv_create_cq(cqe=256) failed: Connection timed out
[1739916218.372760] [ohm:523622:0]        ib_iface.c:1059 UCX  ERROR ibv_create_cq(cqe=256) failed: Connection timed out
[1739916218.375001] [ohm:523730:0]        ib_iface.c:1059 UCX  ERROR ibv_create_cq(cqe=256) failed: Connection timed out
[1739916218.375333] [ohm:523656:0]        ib_iface.c:1059 UCX  ERROR ibv_create_cq(cqe=256) failed: Connection timed out
[1739916218.408671] [ohm:523650:0]        ib_iface.c:1059 UCX  ERROR ibv_create_cq(cqe=256) failed: Connection timed out
[1739916218.409298] [ohm:523618:0]        ib_iface.c:1059 UCX  ERROR ibv_create_cq(cqe=256) failed: Connection timed out
[1739916218.416486] [ohm:523628:0]        ib_iface.c:1059 UCX  ERROR ibv_create_cq(cqe=256) failed: Connection timed out
[1739916218.420629] [ohm:523620:0]        ib_iface.c:1059 UCX  ERROR ibv_create_cq(cqe=256) failed: Connection timed out
[1739916218.426450] [ohm:523682:0]        ib_iface.c:1059 UCX  ERROR ibv_create_cq(cqe=256) failed: Connection timed out
[1739916218.426823] [ohm:523705:0]        ib_iface.c:1059 UCX  ERROR ibv_create_cq(cqe=256) failed: Connection timed out
[1739916218.430693] [ohm:523625:0]        ib_iface.c:1059 UCX  ERROR ibv_create_cq(cqe=256) failed: Connection timed out
[1739916218.432313] [ohm:523630:0]        ib_iface.c:1059 UCX  ERROR ibv_create_cq(cqe=256) failed: Connection timed out
[1739916218.437625] [ohm:523690:0]        ib_iface.c:1059 UCX  ERROR ibv_create_cq(cqe=256) failed: Connection timed out
[1739916218.437635] [ohm:523629:0]        ib_iface.c:1059 UCX  ERROR ibv_create_cq(cqe=256) failed: Connection timed out
[1739916218.439696] [ohm:523632:0]        ib_iface.c:1059 UCX  ERROR ibv_create_cq(cqe=256) failed: Connection timed out
[1739916218.440684] [ohm:523747:0]        ib_iface.c:1059 UCX  ERROR ibv_create_cq(cqe=256) failed: Connection timed out
[1739916218.450228] [ohm:523709:0]        ib_iface.c:1059 UCX  ERROR ibv_create_cq(cqe=256) failed: Connection timed out
[1739916218.455124] [ohm:523634:0]        ib_iface.c:1059 UCX  ERROR ibv_create_cq(cqe=256) failed: Connection timed out
[1739916218.455583] [ohm:523698:0]        ib_iface.c:1059 UCX  ERROR ibv_create_cq(cqe=256) failed: Connection timed out
[1739916218.456005] [ohm:523661:0]        ib_iface.c:1059 UCX  ERROR ibv_create_cq(cqe=256) failed: Connection timed out
[1739916218.456889] [ohm:523726:0]        ib_iface.c:1059 UCX  ERROR ibv_create_cq(cqe=256) failed: Connection timed out
[1739916218.463934] [ohm:523691:0]        ib_iface.c:1059 UCX  ERROR ibv_create_cq(cqe=256) failed: Connection timed out
[1739916218.481306] [ohm:523648:0]        ib_iface.c:1059 UCX  ERROR ibv_create_cq(cqe=256) failed: Connection timed out
[1739916218.483943] [ohm:523757:0]        ib_iface.c:1059 UCX  ERROR ibv_create_cq(cqe=256) failed: Connection timed out
[1739916218.488712] [ohm:523700:0]        ib_iface.c:1059 UCX  ERROR ibv_create_cq(cqe=256) failed: Connection timed out
[1739916218.493088] [ohm:523617:0]        ib_iface.c:1059 UCX  ERROR ibv_create_cq(cqe=256) failed: Connection timed out
[1739916218.493356] [ohm:523613:0]        ib_iface.c:1059 UCX  ERROR ibv_create_cq(cqe=256) failed: Connection timed out
[1739916218.493424] [ohm:523742:0]        ib_iface.c:1059 UCX  ERROR ibv_create_cq(cqe=256) failed: Connection timed out
[1739916218.495141] [ohm:523659:0]        ib_iface.c:1059 UCX  ERROR ibv_create_cq(cqe=256) failed: Connection timed out
[1739916218.496814] [ohm:523623:0]        ib_iface.c:1059 UCX  ERROR ibv_create_cq(cqe=256) failed: Connection timed out
[1739916218.498598] [ohm:523708:0]        ib_iface.c:1059 UCX  ERROR ibv_create_cq(cqe=256) failed: Connection timed out
[1739916218.500801] [ohm:523712:0]        ib_iface.c:1059 UCX  ERROR ibv_create_cq(cqe=256) failed: Connection timed out
[1739916218.501839] [ohm:523715:0]        ib_iface.c:1059 UCX  ERROR ibv_create_cq(cqe=256) failed: Connection timed out
[1739916218.504838] [ohm:523635:0]        ib_iface.c:1059 UCX  ERROR ibv_create_cq(cqe=256) failed: Connection timed out
[1739916218.508505] [ohm:523718:0]        ib_iface.c:1059 UCX  ERROR ibv_create_cq(cqe=256) failed: Connection timed out
[1739916218.509560] [ohm:523722:0]        ib_iface.c:1059 UCX  ERROR ibv_create_cq(cqe=256) failed: Connection timed out
[1739916218.509564] [ohm:523639:0]        ib_iface.c:1059 UCX  ERROR ibv_create_cq(cqe=256) failed: Connection timed out
[1739916218.510093] [ohm:523633:0]        ib_iface.c:1059 UCX  ERROR ibv_create_cq(cqe=256) failed: Connection timed out
[1739916218.510741] [ohm:523672:0]        ib_iface.c:1059 UCX  ERROR ibv_create_cq(cqe=256) failed: Connection timed out
[1739916218.511262] [ohm:523676:0]        ib_iface.c:1059 UCX  ERROR ibv_create_cq(cqe=256) failed: Connection timed out


           ************************************************************
           *        Program running with 64 parallel MPI-processes    *
           *              working on a common directory               *
           ************************************************************
-------------------------------------------------------------------------------
                                 ORCA GUESS
                   Start orbitals & Density for SCF / CASSCF
-------------------------------------------------------------------------------

------------
SCF SETTINGS
------------
Hamiltonian:
 Density Functional     Method          .... DFT(GTOs)
  Functional kind                       .... Exchange-Correlation
  Functional name                       .... wB97M-V exchange-correlation functional
  Functional family                     .... Hybrid MGGA
  Functional refs                              
    [ 0] N. Mardirossian and M. Head-Gordon.,  J. Chem. Phys. 144, 214110 (2016), doi: 10.1063/1.4952647
  Fraction of HF Exchange (short range) .... 0.1500
  Fraction of HF Exchange (long range)  .... 1.0000
  Range separation parameter mu         .... 0.3000
  Functional external parameters        .... 17
    Parameter  0 _cx00      =  8.500000e-01 : u^00 coefficient for exchange
    Parameter  1 _cx01      =  1.007000e+00 : u^01 coefficient for exchange
    Parameter  2 _cx10      =  2.590000e-01 : u^10 coefficient for exchange
    Parameter  3 _css00     =  4.430000e-01 : u^00 coefficient for same-spin correlation
    Parameter  4 _css04     = -1.437000e+00 : u^04 coefficient for same-spin correlation
    Parameter  5 _css10     = -4.535000e+00 : u^10 coefficient for same-spin correlation
    Parameter  6 _css20     = -3.390000e+00 : u^20 coefficient for same-spin correlation
    Parameter  7 _css43     =  4.278000e+00 : u^43 coefficient for same-spin correlation
    Parameter  8 _cos00     =  1.000000e+00 : u^00 coefficient for opposite-spin correlation
    Parameter  9 _cos10     =  1.358000e+00 : u^10 coefficient for opposite-spin correlation
    Parameter 10 _cos20     =  2.924000e+00 : u^20 coefficient for opposite-spin correlation
    Parameter 11 _cos21     = -8.812000e+00 : u^21 coefficient for opposite-spin correlation
    Parameter 12 _cos60     = -1.390000e+00 : u^60 coefficient for opposite-spin correlation
    Parameter 13 _cos61     =  9.142000e+00 : u^61 coefficient for opposite-spin correlation
    Parameter 14 _alpha     =  1.000000e+00 : fraction of HF exchange
    Parameter 15 _beta      = -8.500000e-01 : fraction of short-range exchange
    Parameter 16 _omega     =  3.000000e-01 : range-separation constant
 Long-range corrected/Screened/Range-Separated Hybrid DFT is turned on
   Amount of maximum screened exact exchange              ....  0.850000
   Range separation parameter mu (erf(mu*r12)/r12)        ....  0.300000
 RI-approximation to the Coulomb term is turned on
   Number of AuxJ basis functions       .... 1014
   RIJ-COSX (HFX calculated with COS-X)).... on


General Settings:
 Integral files         IntName         .... orca
 Hartree-Fock type      HFTyp           .... UHF
 Total Charge           Charge          ....    0
 Multiplicity           Mult            ....    3
 Number of Electrons    NEL             ....  132
 Basis Dimension        Dim             ....  882
 Nuclear Repulsion      ENuc            ....   1439.1773608103 Eh

Convergence Acceleration:
 AO-DIIS                CNVDIIS         .... on
   Start iteration      DIISMaxIt       ....    12
   Startup error        DIISStart       ....  0.200000
   # of expansion vecs  DIISMaxEq       ....     5
   Bias factor          DIISBfac        ....   1.050
   Max. coefficient     DIISMaxC        ....  10.000
 MO-DIIS                CNVKDIIS        .... off
 Trust-Rad. Augm. Hess. CNVTRAH         .... auto
   Auto Start mean grad. ratio tolernc. ....  1.125000
   Auto Start start iteration           ....    50
   Auto Start num. interpolation iter.  ....    10
   Max. Number of Micro iterations      ....    24
   Max. Number of Macro iterations      .... Maxiter - #DIIS iter
   Number of Davidson start vectors     ....     2
   Converg. threshold    (grad. norm)   ....   1.000e-05
   Grad. Scal. Fac. for Micro threshold ....   0.100
   Minimum threshold for Micro iter.    ....   1.000e-02
   NR start threshold (gradient norm)   ....   1.000e-04
   Initial trust radius                 ....   0.400
   Minimum AH scaling param. (alpha)    ....   1.000
   Maximum AH scaling param. (alpha)    .... 1000.000
   Quad. conv. algorithm                .... NR
   White noise on init. David. guess    .... on
   Maximum white noise                  ....   0.010
   Pseudo random numbers                .... off
   Inactive MOs                         .... canonical
   Orbital update algorithm             .... Taylor
   Preconditioner                       .... Diag
   Full preconditioner red. dimension   ....   250
 SOSCF                  CNVSOSCF        .... on
   Start iteration      SOSCFMaxIt      ....   150
   Startup grad/error   SOSCFStart      ....  0.003300
   Hessian update       SOSCFHessUp     .... L-BFGS
 Level Shifting         CNVShift        .... on
   Level shift para.    LevelShift      ....    0.2500
   Turn off err/grad.   ShiftErr        ....    0.0010
 Zerner damping         CNVZerner       .... off
 Static damping         CNVDamp         .... on
   Fraction old density DampFac         ....    0.7000
   Max. Damping (<1)    DampMax         ....    0.9800
   Min. Damping (>=0)   DampMin         ....    0.0000
   Turn off err/grad.   DampErr         ....    0.1000

SCF Procedure:
 Maximum # iterations   MaxIter         ....   125
 SCF integral mode      SCFMode         .... Direct
   Integral package                     .... SHARK and LIBINT hybrid scheme
 Reset frequency        DirectResetFreq ....    20
 Integral Threshold     Thresh          ....  1.000e-12 Eh
 Primitive CutOff       TCut            ....  1.000e-13 Eh

Convergence Tolerance:
 Convergence Check Mode ConvCheckMode   .... Total+1el-Energy
 Convergence forced     ConvForced      .... 1
 Energy Change          TolE            ....  1.000e-08 Eh
 1-El. energy change                    ....  1.000e-05 Eh
 Orbital Gradient       TolG            ....  1.000e-05
 Orbital Rotation angle TolX            ....  1.000e-05
 DIIS Error             TolErr          ....  5.000e-07

------------------------------
INITIAL GUESS: MODEL POTENTIAL
------------------------------
Loading Hartree-Fock densities                     ... done
Calculating cut-offs                               ... done
Initializing the effective Hamiltonian             ... done
Setting up the integral package (SHARK)            ... done
Starting the Coulomb interaction                   ... done (   0.1 sec)
Making the grid                                    ... done (   0.3 sec)
Mapping shells                                     ... done
Starting the XC term evaluation                    ... done (   0.1 sec)
  promolecular density results
     # of electrons  =    131.993089909
     EX              =   -113.480065710
     EC              =     -4.484366461
     EX+EC           =   -117.964432171
Transforming the Hamiltonian                       ... done (   0.1 sec)
Diagonalizing the Hamiltonian                      ... done (   0.1 sec)
Back transforming the eigenvectors                 ... done (   0.1 sec)
Now organizing SCF variables                       ... done
                      ------------------
                      INITIAL GUESS DONE (   1.1 sec)
                      ------------------
             **** ENERGY FILE WAS UPDATED (orca.en.tmp) ****
Finished Guess after   3.4 sec
Maximum memory used throughout the entire GUESS-calculation: 72.5 MB
[1739916222.247963] [ohm:523962:0]        ib_iface.c:1059 UCX  ERROR ibv_create_cq(cqe=256) failed: Connection timed out
[1739916222.259116] [ohm:523966:0]        ib_iface.c:1059 UCX  ERROR ibv_create_cq(cqe=256) failed: Connection timed out
[1739916222.259792] [ohm:523964:0]        ib_iface.c:1059 UCX  ERROR ibv_create_cq(cqe=256) failed: Connection timed out
[1739916222.262659] [ohm:523967:0]        ib_iface.c:1059 UCX  ERROR ibv_create_cq(cqe=256) failed: Connection timed out
[1739916222.268581] [ohm:523968:0]        ib_iface.c:1059 UCX  ERROR ibv_create_cq(cqe=256) failed: Connection timed out
[1739916222.307659] [ohm:523963:0]        ib_iface.c:1059 UCX  ERROR ibv_create_cq(cqe=256) failed: Connection timed out
[1739916222.310368] [ohm:524058:0]        ib_iface.c:1059 UCX  ERROR ibv_create_cq(cqe=256) failed: Connection timed out
[1739916222.313599] [ohm:523973:0]        ib_iface.c:1059 UCX  ERROR ibv_create_cq(cqe=256) failed: Connection timed out
[1739916222.329213] [ohm:523969:0]        ib_iface.c:1059 UCX  ERROR ibv_create_cq(cqe=256) failed: Connection timed out
[1739916222.336000] [ohm:523992:0]        ib_iface.c:1059 UCX  ERROR ibv_create_cq(cqe=256) failed: Connection timed out
[1739916222.344837] [ohm:523991:0]        ib_iface.c:1059 UCX  ERROR ibv_create_cq(cqe=256) failed: Connection timed out
[1739916222.347197] [ohm:524107:0]        ib_iface.c:1059 UCX  ERROR ibv_create_cq(cqe=256) failed: Connection timed out
[1739916222.360284] [ohm:523970:0]        ib_iface.c:1059 UCX  ERROR ibv_create_cq(cqe=256) failed: Connection timed out
[1739916222.362789] [ohm:524001:0]        ib_iface.c:1059 UCX  ERROR ibv_create_cq(cqe=256) failed: Connection timed out
[1739916222.372382] [ohm:523983:0]        ib_iface.c:1059 UCX  ERROR ibv_create_cq(cqe=256) failed: Connection timed out
[1739916222.376466] [ohm:524055:0]        ib_iface.c:1059 UCX  ERROR ibv_create_cq(cqe=256) failed: Connection timed out
[1739916222.376657] [ohm:523975:0]        ib_iface.c:1059 UCX  ERROR ibv_create_cq(cqe=256) failed: Connection timed out
[1739916222.382880] [ohm:524026:0]        ib_iface.c:1059 UCX  ERROR ibv_create_cq(cqe=256) failed: Connection timed out
[1739916222.388106] [ohm:523989:0]        ib_iface.c:1059 UCX  ERROR ibv_create_cq(cqe=256) failed: Connection timed out
[1739916222.444663] [ohm:524081:0]        ib_iface.c:1059 UCX  ERROR ibv_create_cq(cqe=256) failed: Connection timed out
[1739916222.453867] [ohm:524065:0]        ib_iface.c:1059 UCX  ERROR ibv_create_cq(cqe=256) failed: Connection timed out
[1739916222.467709] [ohm:524096:0]        ib_iface.c:1059 UCX  ERROR ibv_create_cq(cqe=256) failed: Connection timed out
[1739916222.472525] [ohm:523965:0]        ib_iface.c:1059 UCX  ERROR ibv_create_cq(cqe=256) failed: Connection timed out
[1739916222.477555] [ohm:523998:0]        ib_iface.c:1059 UCX  ERROR ibv_create_cq(cqe=256) failed: Connection timed out
[1739916222.481135] [ohm:524070:0]        ib_iface.c:1059 UCX  ERROR ibv_create_cq(cqe=256) failed: Connection timed out
[1739916222.488551] [ohm:524006:0]        ib_iface.c:1059 UCX  ERROR ibv_create_cq(cqe=256) failed: Connection timed out
[1739916222.492856] [ohm:524083:0]        ib_iface.c:1059 UCX  ERROR ibv_create_cq(cqe=256) failed: Connection timed out
[1739916222.496054] [ohm:524016:0]        ib_iface.c:1059 UCX  ERROR ibv_create_cq(cqe=256) failed: Connection timed out
[1739916222.504116] [ohm:524003:0]        ib_iface.c:1059 UCX  ERROR ibv_create_cq(cqe=256) failed: Connection timed out
[1739916222.505574] [ohm:523994:0]        ib_iface.c:1059 UCX  ERROR ibv_create_cq(cqe=256) failed: Connection timed out
[1739916222.505928] [ohm:524103:0]        ib_iface.c:1059 UCX  ERROR ibv_create_cq(cqe=256) failed: Connection timed out
[1739916222.508832] [ohm:524034:0]        ib_iface.c:1059 UCX  ERROR ibv_create_cq(cqe=256) failed: Connection timed out
[1739916222.518352] [ohm:524018:0]        ib_iface.c:1059 UCX  ERROR ibv_create_cq(cqe=256) failed: Connection timed out
[1739916222.526808] [ohm:524008:0]        ib_iface.c:1059 UCX  ERROR ibv_create_cq(cqe=256) failed: Connection timed out
[1739916222.532625] [ohm:523976:0]        ib_iface.c:1059 UCX  ERROR ibv_create_cq(cqe=256) failed: Connection timed out
[1739916222.537954] [ohm:524076:0]        ib_iface.c:1059 UCX  ERROR ibv_create_cq(cqe=256) failed: Connection timed out
[1739916222.542812] [ohm:524013:0]        ib_iface.c:1059 UCX  ERROR ibv_create_cq(cqe=256) failed: Connection timed out
[1739916222.545389] [ohm:524091:0]        ib_iface.c:1059 UCX  ERROR ibv_create_cq(cqe=256) failed: Connection timed out
[1739916222.547137] [ohm:523988:0]        ib_iface.c:1059 UCX  ERROR ibv_create_cq(cqe=256) failed: Connection timed out
[1739916222.550413] [ohm:524048:0]        ib_iface.c:1059 UCX  ERROR ibv_create_cq(cqe=256) failed: Connection timed out
[1739916222.554197] [ohm:524014:0]        ib_iface.c:1059 UCX  ERROR ibv_create_cq(cqe=256) failed: Connection timed out
[1739916222.567728] [ohm:523979:0]        ib_iface.c:1059 UCX  ERROR ibv_create_cq(cqe=256) failed: Connection timed out
[1739916222.570115] [ohm:524033:0]        ib_iface.c:1059 UCX  ERROR ibv_create_cq(cqe=256) failed: Connection timed out
[1739916222.572663] [ohm:524074:0]        ib_iface.c:1059 UCX  ERROR ibv_create_cq(cqe=256) failed: Connection timed out
[1739916222.572922] [ohm:524010:0]        ib_iface.c:1059 UCX  ERROR ibv_create_cq(cqe=256) failed: Connection timed out
[1739916222.578498] [ohm:524009:0]        ib_iface.c:1059 UCX  ERROR ibv_create_cq(cqe=256) failed: Connection timed out
[1739916222.587590] [ohm:524069:0]        ib_iface.c:1059 UCX  ERROR ibv_create_cq(cqe=256) failed: Connection timed out
[1739916222.588689] [ohm:524100:0]        ib_iface.c:1059 UCX  ERROR ibv_create_cq(cqe=256) failed: Connection timed out
[1739916222.590395] [ohm:523990:0]        ib_iface.c:1059 UCX  ERROR ibv_create_cq(cqe=256) failed: Connection timed out
[1739916222.592954] [ohm:524023:0]        ib_iface.c:1059 UCX  ERROR ibv_create_cq(cqe=256) failed: Connection timed out
[1739916222.593148] [ohm:524039:0]        ib_iface.c:1059 UCX  ERROR ibv_create_cq(cqe=256) failed: Connection timed out
[1739916222.599608] [ohm:523978:0]        ib_iface.c:1059 UCX  ERROR ibv_create_cq(cqe=256) failed: Connection timed out
[1739916222.601370] [ohm:524093:0]        ib_iface.c:1059 UCX  ERROR ibv_create_cq(cqe=256) failed: Connection timed out
[1739916222.601384] [ohm:524110:0]        ib_iface.c:1059 UCX  ERROR ibv_create_cq(cqe=256) failed: Connection timed out
[1739916222.601803] [ohm:524051:0]        ib_iface.c:1059 UCX  ERROR ibv_create_cq(cqe=256) failed: Connection timed out
[1739916222.605078] [ohm:524012:0]        ib_iface.c:1059 UCX  ERROR ibv_create_cq(cqe=256) failed: Connection timed out
[1739916222.607490] [ohm:524089:0]        ib_iface.c:1059 UCX  ERROR ibv_create_cq(cqe=256) failed: Connection timed out
[1739916222.608116] [ohm:523995:0]        ib_iface.c:1059 UCX  ERROR ibv_create_cq(cqe=256) failed: Connection timed out
[1739916222.609913] [ohm:524030:0]        ib_iface.c:1059 UCX  ERROR ibv_create_cq(cqe=256) failed: Connection timed out
[1739916222.611267] [ohm:523972:0]        ib_iface.c:1059 UCX  ERROR ibv_create_cq(cqe=256) failed: Connection timed out
[1739916222.611381] [ohm:523984:0]        ib_iface.c:1059 UCX  ERROR ibv_create_cq(cqe=256) failed: Connection timed out
[1739916222.614285] [ohm:524063:0]        ib_iface.c:1059 UCX  ERROR ibv_create_cq(cqe=256) failed: Connection timed out
[1739916222.615168] [ohm:523971:0]        ib_iface.c:1059 UCX  ERROR ibv_create_cq(cqe=256) failed: Connection timed out
[1739916222.615539] [ohm:524042:0]        ib_iface.c:1059 UCX  ERROR ibv_create_cq(cqe=256) failed: Connection timed out


           ************************************************************
           *        Program running with 64 parallel MPI-processes    *
           *              working on a common directory               *
           ************************************************************

-------------------------------------------------------------------------------------------
                                      ORCA LEAN-SCF
                              memory conserving SCF solver
-------------------------------------------------------------------------------------------

----------------------------------------D-I-I-S--------------------------------------------
Iteration    Energy (Eh)           Delta-E    RMSDP     MaxDP     DIISErr   Damp  Time(sec)
-------------------------------------------------------------------------------------------
               ***  Starting incremental Fock matrix formation  ***
    1    -908.1415058756078906     0.00e+00  1.45e-03  2.31e-01  1.47e-01  0.700   7.7
    2    -908.4050562608613291    -2.64e-01  1.16e-03  1.66e-01  6.92e-02  0.700   6.5
                               ***Turning on AO-DIIS***
    3    -908.5204868358678141    -1.15e-01  8.16e-04  1.21e-01  2.64e-02  0.700   5.7
    4    -908.5916939572466617    -7.12e-02  1.96e-03  2.76e-01  1.79e-02  0.000   5.7
    5    -908.7522619547398790    -1.61e-01  2.95e-04  7.06e-02  4.99e-03  0.000   5.8
                              *** Initializing SOSCF ***
---------------------------------------S-O-S-C-F--------------------------------------
Iteration    Energy (Eh)           Delta-E    RMSDP     MaxDP     MaxGrad    Time(sec)
--------------------------------------------------------------------------------------
    6    -908.7537404116355901    -1.48e-03  1.57e-04  4.38e-02  2.50e-03     6.5
               *** Restarting incremental Fock matrix formation ***
    7    -908.7544743083390131    -7.34e-04  3.07e-04  3.51e-02  6.44e-03     7.4
    8    -908.7549595597229199    -4.85e-04  3.29e-04  8.18e-02  3.41e-03     6.7
    9    -908.7551267435233058    -1.67e-04  2.03e-04  2.34e-02  1.24e-03     6.7
   10    -908.7552400998829398    -1.13e-04  3.68e-05  1.26e-02  4.93e-04     6.5
   11    -908.7552510996492856    -1.10e-05  1.10e-05  1.87e-03  1.94e-04     6.3
   12    -908.7552544408381436    -3.34e-06  7.61e-06  1.07e-03  1.60e-04     6.1
   13    -908.7552561680909093    -1.73e-06  4.86e-06  6.60e-04  4.57e-05     6.1
   14    -908.7552563126591849    -1.45e-07  1.68e-06  3.87e-04  2.96e-05     6.0
   15    -908.7552564091170098    -9.65e-08  1.42e-06  1.84e-04  1.76e-05     5.7
   16    -908.7552564258521670    -1.67e-08  1.15e-06  2.76e-04  4.60e-06     5.7
   17    -908.7552564230240932     2.83e-09  9.57e-07  1.97e-04  1.92e-06     5.5
                 **** Energy Check signals convergence ****

               *****************************************************
               *                     SUCCESS                       *
               *           SCF CONVERGED AFTER  17 CYCLES          *
               *****************************************************

Recomputing exchange energy using gridx3       ... done (    7.843 sec)
Old exchange energy                            :    -35.008604740 Eh
New exchange energy                            :    -35.008603417 Eh
Exchange energy change after final integration :      0.000001323 Eh
Total energy after final integration           :   -908.755255100 Eh
             **** ENERGY FILE WAS UPDATED (orca.en.tmp) ****

----------------
TOTAL SCF ENERGY
----------------

Total Energy       :       -908.75525509997101 Eh          -24728.48766 eV

Components:
Nuclear Repulsion  :       1439.17736081034218 Eh           39162.00695 eV
Electronic Energy  :      -2347.93261723336627 Eh          -63890.49464 eV
One Electron Energy:      -4095.57389903803050 Eh         -111446.23161 eV
Two Electron Energy:       1747.64128180466423 Eh           47555.73696 eV

Virial components:
Potential Energy   :      -1814.00735011664256 Eh          -49361.64949 eV
Kinetic Energy     :        905.25209501667155 Eh           24633.16183 eV
Virial Ratio       :          2.00386981715103

DFT components:
N(Alpha)           :       66.999864517774 electrons
N(Beta)            :       64.999879936185 electrons
N(Total)           :      131.999744453959 electrons
E(XC)              :      -86.159742460798 Eh       

---------------
SCF CONVERGENCE
---------------

  Last Energy change         ...   -2.8281e-09  Tolerance :   1.0000e-08
  Last MAX-Density change    ...    1.9723e-04  Tolerance :   1.0000e-07
  Last RMS-Density change    ...    9.5656e-07  Tolerance :   5.0000e-09
  Last DIIS Error            ...    2.4954e-03  Tolerance :   5.0000e-07
  Last Orbital Gradient      ...    1.9177e-06  Tolerance :   1.0000e-05
  Last Orbital Rotation      ...    1.2105e-05  Tolerance :   1.0000e-05


----------------------
UHF SPIN CONTAMINATION
----------------------

Warning: in a DFT calculation there is little theoretical justification to 
         calculate <S**2> as in Hartree-Fock theory. We will do it anyways
         but you should keep in mind that the values have only limited relevance

Expectation value of <S**2>     :     2.015416
Ideal value S*(S+1) for S=1.0   :     2.000000
Deviation                       :     0.015416

----------------
ORBITAL ENERGIES
----------------
                 SPIN UP ORBITALS
  NO   OCC          E(Eh)            E(eV) 
   0   1.0000     -19.334578      -526.1206 
   1   1.0000     -19.333918      -526.1027 
   2   1.0000     -19.331049      -526.0246 
   3   1.0000     -19.325072      -525.8619 
   4   1.0000     -14.567522      -396.4024 
   5   1.0000     -14.562020      -396.2527 
   6   1.0000     -14.561423      -396.2365 
   7   1.0000     -14.556983      -396.1157 
   8   1.0000     -10.513464      -286.0859 
   9   1.0000     -10.508617      -285.9540 
  10   1.0000     -10.480869      -285.1990 
  11   1.0000     -10.479319      -285.1568 
  12   1.0000     -10.456265      -284.5294 
  13   1.0000     -10.453863      -284.4641 
  14   1.0000     -10.423446      -283.6364 
  15   1.0000     -10.417865      -283.4845 
  16   1.0000     -10.381827      -282.5039 
  17   1.0000     -10.379879      -282.4509 
  18   1.0000      -1.218308       -33.1518 
  19   1.0000      -1.212477       -32.9932 
  20   1.0000      -1.192614       -32.4527 
  21   1.0000      -1.188146       -32.3311 
  22   1.0000      -1.120552       -30.4918 
  23   1.0000      -1.099553       -29.9204 
  24   1.0000      -1.056432       -28.7470 
  25   1.0000      -1.043589       -28.3975 
  26   1.0000      -0.983979       -26.7754 
  27   1.0000      -0.961981       -26.1768 
  28   1.0000      -0.883575       -24.0433 
  29   1.0000      -0.845865       -23.0172 
  30   1.0000      -0.827029       -22.5046 
  31   1.0000      -0.802820       -21.8458 
  32   1.0000      -0.783315       -21.3151 
  33   1.0000      -0.773961       -21.0606 
  34   1.0000      -0.696657       -18.9570 
  35   1.0000      -0.688728       -18.7412 
  36   1.0000      -0.683805       -18.6073 
  37   1.0000      -0.670230       -18.2379 
  38   1.0000      -0.653875       -17.7928 
  39   1.0000      -0.635460       -17.2917 
  40   1.0000      -0.616086       -16.7646 
  41   1.0000      -0.596479       -16.2310 
  42   1.0000      -0.593380       -16.1467 
  43   1.0000      -0.586719       -15.9654 
  44   1.0000      -0.575480       -15.6596 
  45   1.0000      -0.570515       -15.5245 
  46   1.0000      -0.563628       -15.3371 
  47   1.0000      -0.561765       -15.2864 
  48   1.0000      -0.558047       -15.1852 
  49   1.0000      -0.553276       -15.0554 
  50   1.0000      -0.550595       -14.9824 
  51   1.0000      -0.539008       -14.6672 
  52   1.0000      -0.530724       -14.4417 
  53   1.0000      -0.524821       -14.2811 
  54   1.0000      -0.518567       -14.1109 
  55   1.0000      -0.504743       -13.7347 
  56   1.0000      -0.494692       -13.4613 
  57   1.0000      -0.428002       -11.6465 
  58   1.0000      -0.422494       -11.4966 
  59   1.0000      -0.417617       -11.3639 
  60   1.0000      -0.403167       -10.9707 
  61   1.0000      -0.401603       -10.9282 
  62   1.0000      -0.395639       -10.7659 
  63   1.0000      -0.391857       -10.6630 
  64   1.0000      -0.385507       -10.4902 
  65   1.0000      -0.348959        -9.4957 
  66   1.0000      -0.321772        -8.7559 
  67   0.0000       0.004219         0.1148 
  68   0.0000       0.028883         0.7859 
  69   0.0000       0.031174         0.8483 
  70   0.0000       0.037466         1.0195 
  71   0.0000       0.054782         1.4907 
  72   0.0000       0.056334         1.5329 
  73   0.0000       0.059085         1.6078 
  74   0.0000       0.064074         1.7435 
  75   0.0000       0.065369         1.7788 
  76   0.0000       0.072618         1.9760 
  77   0.0000       0.075856         2.0642 

                 SPIN DOWN ORBITALS
  NO   OCC          E(Eh)            E(eV) 
   0   1.0000     -19.330969      -526.0224 
   1   1.0000     -19.330021      -525.9966 
   2   1.0000     -19.329041      -525.9700 
   3   1.0000     -19.324850      -525.8559 
   4   1.0000     -14.567063      -396.3899 
   5   1.0000     -14.561455      -396.2373 
   6   1.0000     -14.561163      -396.2294 
   7   1.0000     -14.556266      -396.0961 
   8   1.0000     -10.513516      -286.0873 
   9   1.0000     -10.508672      -285.9555 
  10   1.0000     -10.481882      -285.2265 
  11   1.0000     -10.480416      -285.1866 
  12   1.0000     -10.455634      -284.5123 
  13   1.0000     -10.453358      -284.4503 
  14   1.0000     -10.412317      -283.3336 
  15   1.0000     -10.406930      -283.1870 
  16   1.0000     -10.382376      -282.5188 
  17   1.0000     -10.380322      -282.4629 
  18   1.0000      -1.216977       -33.1156 
  19   1.0000      -1.211170       -32.9576 
  20   1.0000      -1.186989       -32.2996 
  21   1.0000      -1.182020       -32.1644 
  22   1.0000      -1.117985       -30.4219 
  23   1.0000      -1.097315       -29.8595 
  24   1.0000      -1.054366       -28.6908 
  25   1.0000      -1.041669       -28.3453 
  26   1.0000      -0.969865       -26.3914 
  27   1.0000      -0.945037       -25.7158 
  28   1.0000      -0.878771       -23.9126 
  29   1.0000      -0.841090       -22.8872 
  30   1.0000      -0.817689       -22.2505 
  31   1.0000      -0.796797       -21.6820 
  32   1.0000      -0.781761       -21.2728 
  33   1.0000      -0.772183       -21.0122 
  34   1.0000      -0.690994       -18.8029 
  35   1.0000      -0.684420       -18.6240 
  36   1.0000      -0.677930       -18.4474 
  37   1.0000      -0.664608       -18.0849 
  38   1.0000      -0.641703       -17.4616 
  39   1.0000      -0.630877       -17.1670 
  40   1.0000      -0.610347       -16.6084 
  41   1.0000      -0.591739       -16.1020 
  42   1.0000      -0.587377       -15.9833 
  43   1.0000      -0.577362       -15.7108 
  44   1.0000      -0.568408       -15.4672 
  45   1.0000      -0.565689       -15.3932 
  46   1.0000      -0.559968       -15.2375 
  47   1.0000      -0.555406       -15.1134 
  48   1.0000      -0.550985       -14.9931 
  49   1.0000      -0.545389       -14.8408 
  50   1.0000      -0.538790       -14.6612 
  51   1.0000      -0.533463       -14.5163 
  52   1.0000      -0.523217       -14.2374 
  53   1.0000      -0.512994       -13.9593 
  54   1.0000      -0.505778       -13.7629 
  55   1.0000      -0.500736       -13.6257 
  56   1.0000      -0.490165       -13.3381 
  57   1.0000      -0.424096       -11.5402 
  58   1.0000      -0.418244       -11.3810 
  59   1.0000      -0.411555       -11.1990 
  60   1.0000      -0.390115       -10.6156 
  61   1.0000      -0.388928       -10.5833 
  62   1.0000      -0.388168       -10.5626 
  63   1.0000      -0.385777       -10.4975 
  64   1.0000      -0.371543       -10.1102 
  65   0.0000      -0.069605        -1.8941 
  66   0.0000      -0.053438        -1.4541 
  67   0.0000       0.003884         0.1057 
  68   0.0000       0.028469         0.7747 
  69   0.0000       0.030875         0.8401 
  70   0.0000       0.037433         1.0186 
  71   0.0000       0.055678         1.5151 
  72   0.0000       0.056431         1.5356 
  73   0.0000       0.060382         1.6431 
  74   0.0000       0.063978         1.7409 
  75   0.0000       0.065177         1.7735 
*Only the first 10 virtual orbitals were printed.

                    ********************************
                    * MULLIKEN POPULATION ANALYSIS *
                    ********************************

--------------------------------------------
MULLIKEN ATOMIC CHARGES AND SPIN POPULATIONS
--------------------------------------------
   0 O :   -0.675312    0.167954
   1 O :   -0.673363    0.178930
   2 O :   -0.623710    0.003054
   3 O :   -0.651301    0.007716
   4 N :   -0.253196    0.021218
   5 N :   -0.277823    0.025925
   6 N :    0.005447    0.032669
   7 N :    0.060310    0.026423
   8 C :   -0.320902    0.419078
   9 C :   -0.182637    0.378779
  10 C :    0.463553    0.148665
  11 C :    0.643695    0.173427
  12 C :   -1.334519    0.007635
  13 C :   -1.192980    0.005900
  14 C :    0.659672    0.156926
  15 C :    0.481827    0.146950
  16 C :    0.362928   -0.012044
  17 C :    0.259418   -0.006356
  18 H :    0.569352    0.009326
  19 H :    0.535734    0.016888
  20 H :    0.287347    0.009886
  21 H :    0.312525    0.006065
  22 H :    0.380377    0.031011
  23 H :    0.346801    0.019693
  24 H :    0.176230    0.021275
  25 H :    0.297780    0.005761
  26 H :    0.056062   -0.000054
  27 H :    0.067237   -0.000161
  28 H :    0.109846   -0.000026
  29 H :    0.109602   -0.002510
Sum of atomic charges         :    0.0000000
Sum of atomic spin populations:    2.0000000

-----------------------------------------------------
MULLIKEN REDUCED ORBITAL CHARGES AND SPIN POPULATIONS
-----------------------------------------------------
CHARGE
  0 O s       :     4.097022  s :     4.097022
      pz      :     1.681589  p :     4.547214
      px      :     1.322693
      py      :     1.542932
      dz2     :     0.003292  d :     0.029233
      dxz     :     0.004742
      dyz     :     0.003955
      dx2y2   :     0.010223
      dxy     :     0.007020
      f0      :     0.000172  f :     0.001843
      f+1     :     0.000325
      f-1     :     0.000096
      f+2     :     0.000242
      f-2     :     0.000307
      f+3     :     0.000398
      f-3     :     0.000302

  1 O s       :     4.094721  s :     4.094721
      pz      :     1.331610  p :     4.545629
[...]
[1739916477.231772] [ohm:526356:0]        ib_iface.c:1059 UCX  ERROR ibv_create_cq(cqe=256) failed: Connection timed out
[1739916477.233374] [ohm:526251:0]        ib_iface.c:1059 UCX  ERROR ibv_create_cq(cqe=256) failed: Connection timed out
[1739916477.234719] [ohm:526363:0]        ib_iface.c:1059 UCX  ERROR ibv_create_cq(cqe=256) failed: Connection timed out
[1739916477.237450] [ohm:526335:0]        ib_iface.c:1059 UCX  ERROR ibv_create_cq(cqe=256) failed: Connection timed out
[1739916477.238204] [ohm:526281:0]        ib_iface.c:1059 UCX  ERROR ibv_create_cq(cqe=256) failed: Connection timed out
[1739916477.239632] [ohm:526243:0]        ib_iface.c:1059 UCX  ERROR ibv_create_cq(cqe=256) failed: Connection timed out
[1739916477.239907] [ohm:526315:0]        ib_iface.c:1059 UCX  ERROR ibv_create_cq(cqe=256) failed: Connection timed out
[1739916477.240666] [ohm:526326:0]        ib_iface.c:1059 UCX  ERROR ibv_create_cq(cqe=256) failed: Connection timed out
[1739916477.241890] [ohm:526252:0]        ib_iface.c:1059 UCX  ERROR ibv_create_cq(cqe=256) failed: Connection timed out
[1739916477.245165] [ohm:526337:0]        ib_iface.c:1059 UCX  ERROR ibv_create_cq(cqe=256) failed: Connection timed out
[1739916477.250038] [ohm:526269:0]        ib_iface.c:1059 UCX  ERROR ibv_create_cq(cqe=256) failed: Connection timed out


           ************************************************************
           *        Program running with 64 parallel MPI-processes    *
           *              working on a common directory               *
           ************************************************************

------------------------------------------------------------------------------
                              ORCA PROPERTY CALCULATIONS
------------------------------------------------------------------------------

GBWName                                 ... orca.gbw
Number of atoms                         ...     30
Number of basis functions               ...    882
Max core memory                         ...   1024 MB

Electric properties:
Dipole moment                           ... YES
Quadrupole moment                       ...  NO
Static polarizability (Dipole/Dipole)   ...  NO
Static polarizability (Dipole/Quad.)    ...  NO
Static polarizability (Quad./Quad.)     ...  NO
Static polarizability (Velocity)        ...  NO

Atomic electric properties:
Dipole moment                           ...  NO
Quadrupole moment                       ...  NO
Static polarizability                   ...  NO

Choice of electric origin               ... Center of mass
Position of electric origin             ...    -0.004424    -0.003760    -0.021270

General magnetic properties:
Magnetizability                         ...  NO

EPR properties:
g-Tensor (aka g-matrix)                 ...  NO
Zero-Field splitting spin-orbit         ...  NO
Zero-field splitting spin-spin          ...  NO
Hyperfine couplings                     ...  NO (   0 nuclei)
Quadrupole couplings                    ...  NO (   0 nuclei)
Contact density                         ...  NO (   0 nuclei)

NMR properties:
Chemical shifts                         ...  NO (   0 nuclei)
Spin-rotation constants                 ...  NO (   0 nuclei)
Spin-spin couplings                     ...  NO (   0 nuclei,    0 pairs)

Choice of magnetic origin               ... GIAO
Position of magnetic origin             ...     0.000000     0.000000     0.000000

Properties with geometric perturbations:
SCF Hessian                             ...  NO
IR spectrum                             ...  NO
VCD spectrum                            ...  NO
X-ray spectroscopy properties:
SCF XES/XAS/RIXS spectra                ...  NO


-------------
DIPOLE MOMENT
-------------

Method             : SCF
Type of density    : Electron Density
Multiplicity       :   3
Irrep              :   0
Energy             :  -908.7552550999710093 Eh
Relativity type    : 
Basis              : AO
                                X                 Y                 Z
Electronic contribution:     -4.065664585     -10.038368072      -6.398985738
Nuclear contribution   :      4.227463244      11.666499517       9.049556582
                        -----------------------------------------
Total Dipole Moment    :      0.161798659       1.628131444       2.650570844
                        -----------------------------------------
Magnitude (a.u.)       :      3.114886291
Magnitude (Debye)      :      7.917411744



--------------------
Rotational spectrum 
--------------------
 
Rotational constants in cm-1:             0.019871             0.013689             0.012060 
Rotational constants in MHz :           595.717391           410.372197           361.552659 

Dipole components along the rotational axes: 
x,y,z [a.u.] :    -0.893490    -1.481724    -2.590113 
x,y,z [Debye]:    -2.271070    -3.766243    -6.583545 

 

-------------
DIPOLE MOMENT
-------------

Method             : TDA/CIS
Type of density    : Electron Density
Level              : Relaxed density
State              :   2
Multiplicity       :   3
Irrep              :   0
Energy             :     0.0000000000000000 Eh
Relativity type    : 
Basis              : AO
                                X                 Y                 Z
Electronic contribution:     -4.114236062     -10.001676747      -6.287080341
Nuclear contribution   :      4.227463244      11.666499517       9.049556582
                        -----------------------------------------
Total Dipole Moment    :      0.113227182       1.664822770       2.762476241
                        -----------------------------------------
Magnitude (a.u.)       :      3.227341047
Magnitude (Debye)      :      8.203249017



--------------------
Rotational spectrum 
--------------------
 
Rotational constants in cm-1:             0.019871             0.013689             0.012060 
Rotational constants in MHz :           595.717391           410.372197           361.552659 

Dipole components along the rotational axes: 
x,y,z [a.u.] :    -0.871075    -1.524154    -2.708120 
x,y,z [Debye]:    -2.214097    -3.874091    -6.883494 

 

Dipole moment calculation done in   0.2 sec 

Maximum memory used throughout the entire PROP-calculation: 81.6 MB
[1739916479.645024] [ohm:526575:0]        ib_iface.c:1059 UCX  ERROR ibv_create_cq(cqe=256) failed: Connection timed out
[1739916479.647150] [ohm:526570:0]        ib_iface.c:1059 UCX  ERROR ibv_create_cq(cqe=256) failed: Connection timed out
[1739916479.676286] [ohm:526568:0]        ib_iface.c:1059 UCX  ERROR ibv_create_cq(cqe=256) failed: Connection timed out
[1739916479.681456] [ohm:526567:0]        ib_iface.c:1059 UCX  ERROR ibv_create_cq(cqe=256) failed: Connection timed out
[1739916479.682573] [ohm:526579:0]        ib_iface.c:1059 UCX  ERROR ibv_create_cq(cqe=256) failed: Connection timed out
[1739916479.695571] [ohm:526581:0]        ib_iface.c:1059 UCX  ERROR ibv_create_cq(cqe=256) failed: Connection timed out
[1739916479.702748] [ohm:526572:0]        ib_iface.c:1059 UCX  ERROR ibv_create_cq(cqe=256) failed: Connection timed out
[1739916479.716239] [ohm:526632:0]        ib_iface.c:1059 UCX  ERROR ibv_create_cq(cqe=256) failed: Connection timed out
[1739916479.745114] [ohm:526580:0]        ib_iface.c:1059 UCX  ERROR ibv_create_cq(cqe=256) failed: Connection timed out
[1739916479.745196] [ohm:526585:0]        ib_iface.c:1059 UCX  ERROR ibv_create_cq(cqe=256) failed: Connection timed out
[1739916479.757163] [ohm:526615:0]        ib_iface.c:1059 UCX  ERROR ibv_create_cq(cqe=256) failed: Connection timed out
[1739916479.758884] [ohm:526573:0]        ib_iface.c:1059 UCX  ERROR ibv_create_cq(cqe=256) failed: Connection timed out
[1739916479.765097] [ohm:526582:0]        ib_iface.c:1059 UCX  ERROR ibv_create_cq(cqe=256) failed: Connection timed out
[1739916479.770043] [ohm:526597:0]        ib_iface.c:1059 UCX  ERROR ibv_create_cq(cqe=256) failed: Connection timed out
[1739916479.776000] [ohm:526577:0]        ib_iface.c:1059 UCX  ERROR ibv_create_cq(cqe=256) failed: Connection timed out
[1739916479.777908] [ohm:526587:0]        ib_iface.c:1059 UCX  ERROR ibv_create_cq(cqe=256) failed: Connection timed out
[1739916479.782454] [ohm:526614:0]        ib_iface.c:1059 UCX  ERROR ibv_create_cq(cqe=256) failed: Connection timed out
[1739916479.802745] [ohm:526671:0]        ib_iface.c:1059 UCX  ERROR ibv_create_cq(cqe=256) failed: Connection timed out
[1739916479.809401] [ohm:526690:0]        ib_iface.c:1059 UCX  ERROR ibv_create_cq(cqe=256) failed: Connection timed out
[1739916479.821828] [ohm:526666:0]        ib_iface.c:1059 UCX  ERROR ibv_create_cq(cqe=256) failed: Connection timed out
[1739916479.852572] [ohm:526700:0]        ib_iface.c:1059 UCX  ERROR ibv_create_cq(cqe=256) failed: Connection timed out
[1739916479.876934] [ohm:526722:0]        ib_iface.c:1059 UCX  ERROR ibv_create_cq(cqe=256) failed: Connection timed out
[1739916479.886270] [ohm:526709:0]        ib_iface.c:1059 UCX  ERROR ibv_create_cq(cqe=256) failed: Connection timed out
[1739916479.889313] [ohm:526714:0]        ib_iface.c:1059 UCX  ERROR ibv_create_cq(cqe=256) failed: Connection timed out
[1739916479.890668] [ohm:526606:0]        ib_iface.c:1059 UCX  ERROR ibv_create_cq(cqe=256) failed: Connection timed out
[1739916479.892025] [ohm:526643:0]        ib_iface.c:1059 UCX  ERROR ibv_create_cq(cqe=256) failed: Connection timed out
[1739916479.892255] [ohm:526673:0]        ib_iface.c:1059 UCX  ERROR ibv_create_cq(cqe=256) failed: Connection timed out
[1739916479.898883] [ohm:526603:0]        ib_iface.c:1059 UCX  ERROR ibv_create_cq(cqe=256) failed: Connection timed out
[1739916479.899772] [ohm:526694:0]        ib_iface.c:1059 UCX  ERROR ibv_create_cq(cqe=256) failed: Connection timed out
[1739916479.900712] [ohm:526647:0]        ib_iface.c:1059 UCX  ERROR ibv_create_cq(cqe=256) failed: Connection timed out
[1739916479.905927] [ohm:526571:0]        ib_iface.c:1059 UCX  ERROR ibv_create_cq(cqe=256) failed: Connection timed out
[1739916479.910730] [ohm:526653:0]        ib_iface.c:1059 UCX  ERROR ibv_create_cq(cqe=256) failed: Connection timed out
[1739916479.911028] [ohm:526677:0]        ib_iface.c:1059 UCX  ERROR ibv_create_cq(cqe=256) failed: Connection timed out
[1739916479.926593] [ohm:526686:0]        ib_iface.c:1059 UCX  ERROR ibv_create_cq(cqe=256) failed: Connection timed out
[1739916479.930012] [ohm:526687:0]        ib_iface.c:1059 UCX  ERROR ibv_create_cq(cqe=256) failed: Connection timed out
[1739916479.934301] [ohm:526707:0]        ib_iface.c:1059 UCX  ERROR ibv_create_cq(cqe=256) failed: Connection timed out
[1739916479.934489] [ohm:526657:0]        ib_iface.c:1059 UCX  ERROR ibv_create_cq(cqe=256) failed: Connection timed out
[1739916479.935093] [ohm:526680:0]        ib_iface.c:1059 UCX  ERROR ibv_create_cq(cqe=256) failed: Connection timed out
[1739916479.937839] [ohm:526588:0]        ib_iface.c:1059 UCX  ERROR ibv_create_cq(cqe=256) failed: Connection timed out
[1739916479.938277] [ohm:526583:0]        ib_iface.c:1059 UCX  ERROR ibv_create_cq(cqe=256) failed: Connection timed out
[1739916479.943579] [ohm:526584:0]        ib_iface.c:1059 UCX  ERROR ibv_create_cq(cqe=256) failed: Connection timed out
[1739916479.948005] [ohm:526636:0]        ib_iface.c:1059 UCX  ERROR ibv_create_cq(cqe=256) failed: Connection timed out
[1739916479.954929] [ohm:526593:0]        ib_iface.c:1059 UCX  ERROR ibv_create_cq(cqe=256) failed: Connection timed out
[1739916479.956780] [ohm:526728:0]        ib_iface.c:1059 UCX  ERROR ibv_create_cq(cqe=256) failed: Connection timed out
[1739916479.968991] [ohm:526658:0]        ib_iface.c:1059 UCX  ERROR ibv_create_cq(cqe=256) failed: Connection timed out
[1739916479.972864] [ohm:526669:0]        ib_iface.c:1059 UCX  ERROR ibv_create_cq(cqe=256) failed: Connection timed out
[1739916479.973430] [ohm:526665:0]        ib_iface.c:1059 UCX  ERROR ibv_create_cq(cqe=256) failed: Connection timed out
[1739916479.973564] [ohm:526589:0]        ib_iface.c:1059 UCX  ERROR ibv_create_cq(cqe=256) failed: Connection timed out
[1739916479.973912] [ohm:526702:0]        ib_iface.c:1059 UCX  ERROR ibv_create_cq(cqe=256) failed: Connection timed out
[1739916479.977357] [ohm:526611:0]        ib_iface.c:1059 UCX  ERROR ibv_create_cq(cqe=256) failed: Connection timed out
[1739916479.982612] [ohm:526586:0]        ib_iface.c:1059 UCX  ERROR ibv_create_cq(cqe=256) failed: Connection timed out
[1739916479.987546] [ohm:526592:0]        ib_iface.c:1059 UCX  ERROR ibv_create_cq(cqe=256) failed: Connection timed out
[1739916479.988865] [ohm:526590:0]        ib_iface.c:1059 UCX  ERROR ibv_create_cq(cqe=256) failed: Connection timed out
[1739916479.989559] [ohm:526599:0]        ib_iface.c:1059 UCX  ERROR ibv_create_cq(cqe=256) failed: Connection timed out
[1739916479.989541] [ohm:526596:0]        ib_iface.c:1059 UCX  ERROR ibv_create_cq(cqe=256) failed: Connection timed out
[1739916479.991062] [ohm:526638:0]        ib_iface.c:1059 UCX  ERROR ibv_create_cq(cqe=256) failed: Connection timed out
[1739916479.991137] [ohm:526591:0]        ib_iface.c:1059 UCX  ERROR ibv_create_cq(cqe=256) failed: Connection timed out
[1739916479.992043] [ohm:526649:0]        ib_iface.c:1059 UCX  ERROR ibv_create_cq(cqe=256) failed: Connection timed out
[1739916479.994239] [ohm:526696:0]        ib_iface.c:1059 UCX  ERROR ibv_create_cq(cqe=256) failed: Connection timed out
[1739916479.995667] [ohm:526629:0]        ib_iface.c:1059 UCX  ERROR ibv_create_cq(cqe=256) failed: Connection timed out
[1739916479.996082] [ohm:526576:0]        ib_iface.c:1059 UCX  ERROR ibv_create_cq(cqe=256) failed: Connection timed out
[1739916479.996217] [ohm:526574:0]        ib_iface.c:1059 UCX  ERROR ibv_create_cq(cqe=256) failed: Connection timed out
[1739916479.996577] [ohm:526569:0]        ib_iface.c:1059 UCX  ERROR ibv_create_cq(cqe=256) failed: Connection timed out
[1739916480.001025] [ohm:526578:0]        ib_iface.c:1059 UCX  ERROR ibv_create_cq(cqe=256) failed: Connection timed out

--------------------------------
SUGGESTED CITATIONS FOR THIS RUN
--------------------------------

Below you find a list of papers that are relevant to this ORCA run
We neither can nor want to force you to cite these papers, but we appreciate if you do
You receive ORCA, which is the product of decades of hard work by many enthusiastic individuals, for free
The only thing we kindly ask in return is that you cite our papers,
We deeply appreciate it, if you show your appreciation for ORCA by not just citing the generic ORCA reference.

Please note that relegating all ORCA citations to the supporting information does *not* help us.
SI sections are not indexed - citations you put there will not count into any citation statistics
But we need these citations in order to attract the funding resources that allow us to do what we are doing

Therefore, if you are a happy ORCA user, please consider citing a few of the papers listed below in the main body of your paper

In addition to the list printed below, the program has created the file orca.bibtex that contains the list in bibtex format
You can import this file easily into all common literature databanks and citation aid programs


List of essential papers. We consider these as the minimum necessary citations

  1. Neese,F.
     Software update: the ORCA program system, version 5.0
     WIRES Comput. Molec. Sci., 2022 12(1)e1606
     doi.org/10.1002/wcms.1606

List of papers to cite with high priority. The work reported in these papers was absolutely
necessary for this run to complete.
Our perspective: the developers of density functionals and basis sets usually get cited in chemistry papers
Good! But without the algorithms to do something with them, the functionals or basis sets would not do anything.
Hence, in our opinion, the algorithm design and method developments papers are equally worthy of getting cited

  1. Neese,F.; Olbrich,G.
     Efficient use of the resolution of the identity approximation in time-dependent density functional calculations with hybrid density functionals
     Chem. Phys. Lett., 2002 362 170-178
     doi.org/10.1016/s0009-2614(02)01053-9
  2. Neese,F.
     An improvement of the resolution of the identity approximation for the formation of the Coulomb matrix
     J. Comp. Chem., 2003 24(14)1740-1747
     doi.org/10.1002/jcc.10318
  3. Neese,F.; Wennmohs,F.; Hansen,A.; Becker,U.
     Efficient, approximate and parallel Hartree-Fock and hybrid DFT calculations. A 'chain-of-spheres' algorithm for the Hartree-Fock exchange
     Chem. Phys., 2009 356(1-3)98-109
     doi.org/10.1016/j.chemphys.2008.10.036
  4. Petrenko,T.; Kossmann,S.; Neese,F.
     Efficient time-dependent density functional theory approximations for hybrid density functionals: Analytical gradients and parallelization
     J. Chem. Phys., 2011 134 054116
     doi.org/10.1063/1.3533441
  5. Helmich-Paris,B.; de Souza,B.; Neese,F.; Izsák,R.
     An improved chain of spheres for exchange algorithm
     J. Chem. Phys., 2021 155 104109
     doi.org/doi: 10.1063/5.0058766.
  6. Neese,F.
     The SHARK Integral Generation and Digestion System
     J. Comp. Chem., 2022  1-16
     doi.org/10.1002/jcc.26942
  7. Lehtola,S.; Steigemann,C.; Oliveira,M.; Marques,M.
     Recent developments in Libxc - A comprehensive library of functionals for density functional theory
     Software X, 2018 7 
     doi.org/10.1016/j.softx.2017.11.002
  8. Grimme,S.; Antony,J.; Ehrlich,S.; Krieg,H.
     A consistent and accurate ab initio parametrization of density functional dispersion correction (DFT-D) for the 94 elements H-Pu
     J. Chem. Phys., 2010 132 154104-XXXX
     doi.org/10.1063/1.3382344
  9. Grimme,S.; Ehrlich,S.; Goerigk,L.
     Effect of the damping function in dispersion corrected density functional theory
     J. Comput. Chem., 2011 32(7)1456-1465
     doi.org/10.1002/jcc.21759

List of suggested additional citations. These are papers that are important in the 'surrounding' of 
of this run, or papers that preceded the highly important papers. If you like your results we are grateful for a citation.

  1. Izsak,R.; Neese,F.
     An overlap fitted chain of spheres exchange method
     J. Chem. Phys., 2011 135 144105
     doi.org/10.1063/1.3646921
  2. Izsak,R.; Hansen,A.; Neese,F.
     The resolution of identity and chain of spheres approximations for the LPNO-CCSD singles Fock term
     Molec. Phys., 2012 110 2413-2417
     doi.org/10.1080/00268976.2012.687466
  3. Neese,F.
     The ORCA program system
     WIRES Comput. Molec. Sci., 2012 2(1)73-78
     doi.org/10.1002/wcms.81
  4. Izsak,R.; Neese,F.; Klopper,W.
     Robust fitting techniques in the chain of spheres approximation to the Fock exchange: The role of the complementary space
     J. Chem. Phys., 2013 139 
     doi.org/10.1063/1.4819264
  5. Neese,F.
     Software update: the ORCA program system, version 4.0
     WIRES Comput. Molec. Sci., 2018 8(1)1-6
     doi.org/10.1002/wcms.1327
  6. Neese,F.; Wennmohs,F.; Becker,U.; Riplinger,C.
     The ORCA quantum chemistry program package
     J. Chem. Phys., 2020 152 Art. No. L224108
     doi.org/10.1063/5.0004608

List of optional additional citations

  1. Neese,F.
     Approximate second-order SCF convergence for spin unrestricted wavefunctions
     Chem. Phys. Lett., 2000 325(1-3)93-98
     doi.org/10.1016/s0009-2614(00)00662-x

Timings for individual modules:

Sum of individual times          ...      267.789 sec (=   4.463 min)
Startup calculation              ...        6.363 sec (=   0.106 min)   2.4 %
SCF iterations                   ...      124.326 sec (=   2.072 min)  46.4 %
Property integrals               ...        4.095 sec (=   0.068 min)   1.5 %
Property calculations            ...        2.782 sec (=   0.046 min)   1.0 %
CIS module                       ...      130.223 sec (=   2.170 min)  48.6 %
                             ****ORCA TERMINATED NORMALLY****
TOTAL RUN TIME: 0 days 0 hours 4 minutes 29 seconds 800 msec
