7
Properties=species:S:1:pos:R:3:momenta:R:3:forces:R:3 Coordinates=T from=T ORCA-job=T orca=T E=T -153.876068333117=T energy=-4183.409784560322 free_energy=-4183.409784560322 stress="-4.384375531487027e-06 -1.1602124343754426e-05 1.1510842226174031e-05 -1.1602124343754426e-05 -8.08166573402975e-06 9.026816579685758e-06 1.1510842226174031e-05 9.026816579685758e-06 -9.736948590035583e-06" pbc="F F F"
O        0.55950332       0.50209878      -0.79654125       1.50057140      -0.35503271      -0.88839231       1.24413709       2.17133783      -2.39826591
C        0.32030410       0.08978806       0.42709204      -0.29416864       0.82586954      -0.75698291       1.28621939      -2.36994429       0.01217771
C       -0.90885642      -0.62869041       0.40927493      -0.66559545       0.25316210       0.84776870      -1.61633721      -1.00780740       0.66926616
H        0.37233744       0.82610823       1.21183098      -0.02976693      -0.04983342       0.20387465       0.25112776       0.77832768       0.33324780
H        1.24391078      -0.62100061       0.67092585      -0.32113545      -0.31652618      -0.13179337      -1.04186189       0.81622748       0.31634096
H       -1.56189373      -0.71838621      -0.48708423       0.10975777      -0.10087245       0.17993775       0.74548255       0.10323717       0.91801587
H       -1.08387445      -1.11989442       1.33890846      -0.29966270      -0.25676687       0.54558749      -0.86876770      -0.49137846       0.14921742
