7
Properties=species:S:1:pos:R:3:momenta:R:3:forces:R:3 Coordinates=T from=T ORCA-job=T orca=T E=T -153.798269612488=T energy=-4183.515644624208 free_energy=-4183.515644624208 stress="1.1418052337417284e-05 3.563637309769674e-06 6.467951292923635e-06 3.563637309769674e-06 -7.795557165231924e-06 2.836640228631735e-06 6.467951292923635e-06 2.836640228631735e-06 -2.491506888871e-06" pbc="F F F"
O        0.52177002       0.89364749       0.67527455      -0.06127298      -1.54321568       0.26852767      -0.36891165       1.06478291       0.86990975
C        0.45472237      -0.31897014       0.12768648       0.12563645      -0.63176281       0.12939843       0.53202040      -0.05130136      -2.97822835
C       -0.71094742      -0.49893460      -0.88464702      -0.32525830       1.36607314       0.10177676      -0.00019528      -0.14372458       1.22699357
H        0.58596701      -1.11173738       0.80263914       0.18055370       0.09114552       0.03831890      -0.60621149      -1.31149459       1.46535056
H        1.48311805      -0.46481176      -0.32755055      -0.02513419       0.32345696      -0.29871220      -0.64728811      -0.04206925      -0.48513307
H       -1.19344667       0.43052338      -1.13114320       0.03185321       0.02201049      -0.16475405       0.10481551       0.01187631      -0.28951621
H       -1.36012939      -1.39300613      -0.98724035       0.07362211       0.37229238      -0.07455549       0.98577062       0.47193056       0.19062375
