
                                 *****************
                                 * O   R   C   A *
                                 *****************

                                            #,                                       
                                            ###                                      
                                            ####                                     
                                            #####                                    
                                            ######                                   
                                           ########,                                 
                                     ,,################,,,,,                         
                               ,,#################################,,                 
                          ,,##########################################,,             
                       ,#########################################, ''#####,          
                    ,#############################################,,   '####,        
                  ,##################################################,,,,####,       
                ,###########''''           ''''###############################       
              ,#####''   ,,,,##########,,,,          '''####'''          '####       
            ,##' ,,,,###########################,,,                        '##       
           ' ,,###''''                  '''############,,,                           
         ,,##''                                '''############,,,,        ,,,,,,###''
      ,#''                                            '''#######################'''  
     '                                                          ''''####''''         
             ,#######,   #######,   ,#######,      ##                                
            ,#'     '#,  ##    ##  ,#'     '#,    #''#        ,####,   ,####,        
            ##       ##  ##   ,#'  ##            #'  '#       #'       #'  '#        
            ##       ##  #######   ##           ,######,      #####,   #    #        
            '#,     ,#'  ##    ##  '#,     ,#' ,#      #,     #,   #   #,  ,#        
             '#######'   ##     ##  '#######'  #'      '#     '####' # '####'        



                #########################################################
                #                        -***-                          #
                #          Department of theory and spectroscopy        #
                #                                                       #
                #                      Frank Neese                      #
                #                                                       #
                #     Directorship, Architecture, Infrastructure        #
                #                    SHARK, DRIVERS                     #
                #        Core code/Algorithms in most modules           #
                #                                                       #
                #        Max Planck Institute fuer Kohlenforschung      #
                #                Kaiser Wilhelm Platz 1                 #
                #                 D-45470 Muelheim/Ruhr                 #
                #                      Germany                          #
                #                                                       #
                #                  All rights reserved                  #
                #                        -***-                          #
                #########################################################


                         Program Version 6.0.0  -   RELEASE  -


 With contributions from (in alphabetic order):
   Daniel Aravena         : Magnetic Suceptibility
   Michael Atanasov       : Ab Initio Ligand Field Theory (pilot matlab implementation)
   Alexander A. Auer      : GIAO ZORA, VPT2 properties, NMR spectrum
   Ute Becker             : All parallelization in ORCA, NUMFREQ, NUMCALC
   Giovanni Bistoni       : ED, misc. LED, open-shell LED, HFLD
   Martin Brehm           : Molecular dynamics
   Dmytro Bykov           : pre 5.0 version of the SCF Hessian
   Marcos Casanova-Páez   : Triplet and SCS-CIS(D). UHF-(DLPNO)-IP/EA/STEOM-CCSD. UHF-CVS-IP/STEOM-CCSD
   Vijay G. Chilkuri      : MRCI spin determinant printing, contributions to CSF-ICE
   Pauline Colinet        : FMM embedding
   Dipayan Datta          : RHF DLPNO-CCSD density
   Achintya Kumar Dutta   : EOM-CC, STEOM-CC
   Nicolas Foglia         : Exact transition moments, OPA infrastructure, MCD improvements
   Dmitry Ganyushin       : Spin-Orbit,Spin-Spin,Magnetic field MRCI
   Miquel Garcia          : C-PCM and meta-GGA Hessian, CCSD/C-PCM, Gaussian charge scheme
   Tiago L. C. Gouveia    : GS-ROHF, GS-ROCIS
   Yang Guo               : DLPNO-NEVPT2, F12-NEVPT2, CIM, IAO-localization
   Andreas Hansen         : Spin unrestricted coupled pair/coupled cluster methods
   Ingolf Harden          : AUTO-CI MPn and infrastructure 
   Benjamin Helmich-Paris : MC-RPA, TRAH-(SCF,CASSCF), AVAS, COSX integrals, SCF dyn. polar.
   Lee Huntington         : MR-EOM, pCC
   Robert Izsak           : Overlap fitted RIJCOSX, COSX-SCS-MP3, EOM
   Riya Kayal             : Wick's Theorem for AUTO-CI, AUTO-CI UHF-CCSDT
   Emily Kempfer          : AUTO-CI, RHF CISDT and CCSDT
   Christian Kollmar      : KDIIS, OOCD, Brueckner-CCSD(T), CCSD density, CASPT2, CASPT2-K, improved NEVPT2
   Axel Koslowski         : Symmetry handling
   Simone Kossmann        : Meta GGA functionals, TD-DFT gradient, OOMP2, (MP2 Hessian; deprecated post 5.0)
   Lucas Lang             : DCDCAS
   Marvin Lechner         : AUTO-CI (C++ implementation), FIC-MRCC
   Spencer Leger          : CASSCF response
   Dagmar Lenk            : GEPOL surface, SMD, ORCA-2-JSON
   Dimitrios Liakos       : Extrapolation schemes; Compound Job, initial MDCI parallelization
   Dimitrios Manganas     : Further ROCIS development; embedding schemes. LFT, Crystal Embedding
   Dimitrios Pantazis     : SARC Basis sets
   Anastasios Papadopoulos: AUTO-CI, single reference methods and gradients
   Taras Petrenko         : pre 6.0 DFT Hessian and TD-DFT gradient, (ASA, deprecated), ECA, 1-Electron XAS/XES, NRVS
   Peter Pinski           : DLPNO-MP2, DLPNO-MP2 Gradient
   Christoph Reimann      : Effective Core Potentials
   Marius Retegan         : Local ZFS, SOC
   Christoph Riplinger    : Optimizer, TS searches, QM/MM, DLPNO-CCSD(T), (RO)-DLPNO pert. Triples
   Michael Roemelt        : Original ROCIS implementation
   Masaaki Saitow         : Open-shell DLPNO-CCSD energy and density
   Barbara Sandhoefer     : DKH picture change effects
   Kantharuban Sivalingam : CASSCF convergence/infrastructure, NEVPT2 and variants, FIC-MRCI
   Bernardo de Souza      : ESD, SOC TD-DFT
   Georgi Stoychev        : AutoAux, RI-MP2 NMR, DLPNO-MP2 response, X2C
   Van Anh Tran           : RI-MP2 g-tensors
   Willem Van den Heuvel  : Paramagnetic NMR
   Zikuan Wang            : NOTCH, Electric field optimization 
   Frank Wennmohs         : Technical directorship and infrastructure
   Hang Xu                : AUTO-CI-Response properties 


 We gratefully acknowledge several colleagues who have allowed us to
 interface, adapt or use parts of their codes:
   Stefan Grimme, W. Hujo, H. Kruse, P. Pracht,  : VdW corrections, initial TS optimization,
                  C. Bannwarth, S. Ehlert,         DFT functionals, gCP, sTDA/sTD-DF
                  L. Wittmann, M. Mueller
   Ed Valeev, F. Pavosevic, A. Kumar             : LibInt (2-el integral package), F12 methods
   Garnet Chan, S. Sharma, J. Yang, R. Olivares  : DMRG
   Ulf Ekstrom                                   : XCFun DFT Library
   Mihaly Kallay                                 : mrcc  (arbitrary order and MRCC methods)
   Frank Weinhold                                : gennbo (NPA and NBO analysis)
   Simon Mueller                                 : openCOSMO-RS
   Christopher J. Cramer and Donald G. Truhlar   : smd solvation model
   Lars Goerigk                                  : TD-DFT with DH, B97 family of functionals
   V. Asgeirsson, H. Jonsson                     : NEB implementation
   FAccTs GmbH                                   : IRC, NEB, NEB-TS, DLPNO-Multilevel, CI-OPT
                                                   MM, QMMM, 2- and 3-layer-ONIOM, Crystal-QMMM,
                                                   LR-CPCM, SF, NACMEs, symmetry and pop. for TD-DFT,
                                                   nearIR, NL-DFT gradient (VV10), updates on ESD,
                                                   ML-optimized integration grids, MBIS, APM,
                                                   GOAT, DOCKER, SOLVATOR, interface openCOSMO-RS
   S Lehtola, MJT Oliveira, MAL Marques          : LibXC Library
   Liviu Ungur et al                             : ANISO software


 Your calculation uses the libint2 library for the computation of 2-el integrals
 For citations please refer to: http://libint.valeyev.net

 Your ORCA version has been built with support for libXC version: 6.2.2
 For citations please refer to: https://libxc.gitlab.io

 This ORCA versions uses:
   CBLAS   interface :  Fast vector & matrix operations
   LAPACKE interface :  Fast linear algebra routines
   SCALAPACK package :  Parallel linear algebra routines
   Shared memory     :  Shared parallel matrices
   BLAS/LAPACK       :  OpenBLAS 0.3.27  USE64BITINT DYNAMIC_ARCH NO_AFFINITY Zen SINGLE_THREADED
        Core in use  :  Zen
   Copyright (c) 2011-2014, The OpenBLAS Project


Your calculation utilizes the atom-pairwise dispersion correction
with the Becke-Johnson damping scheme (D3BJ)


Warning: RI is on but no J-basis has been assigned. Assigning Def2/J (nothing to worry about!)
================================================================================

----- Orbital basis set information -----
Your calculation utilizes the basis: def2-TZVPPD
   F. Weigend and R. Ahlrichs, Phys. Chem. Chem. Phys. 7, 3297 (2005).
   D. Rappoport and F. Furche, J. Chem. Phys. 133, 134105 (2010)
   D. Rappoport, J. Chem. Phys. 155, 124102 (2021).

----- AuxJ basis set information -----
Your calculation utilizes the auxiliary basis: def2/J
   F. Weigend, Phys. Chem. Chem. Phys. 8, 1057 (2006).

================================================================================
                                        WARNINGS
                       Please study these warnings very carefully!
================================================================================

Using LibXC functional ID 531 : wB97M-V exchange-correlation functional
[ 1]  N. Mardirossian and M. Head-Gordon.,  J. Chem. Phys. 144, 214110 (2016)
Using LibXC functional ID 531 : wB97M-V exchange-correlation functional
[ 1]  N. Mardirossian and M. Head-Gordon.,  J. Chem. Phys. 144, 214110 (2016)

WARNING: B97M-V or wB97M-V functional requested.
  ===> : libXC variant has now been activated.
         Any manually given DFX/HFX/RangeSep scaling parameters are IGNORED!

Your calculation utilizes LibXC
 by S Lehtola, C Steigemann, MJT Oliveira & MAL Marques
Please cite in your paper:
 S Lehtola, C Steigemann, MJT Oliveira & MAL Marques, SoftwareX, 7, (2018), 1.
   


WARNING: Geometry Optimization
  ===> : Switching off AutoStart
         For restart on a previous wavefunction, please use MOREAD

================================================================================
                                       INPUT FILE
================================================================================
NAME = orca.inp
|  1> ! opt def2-TZVPPD wB97M-D3BJ 
|  2> %pal nprocs 8 end%pal nprocs 32 end 
|  3> %geom Constraints 
|  4> {B 9 8 2.7 C} 
|  5> {A 8 9 11 79.71428571428571 C} 
|  6> end 
|  7> MaxIter 300 
|  8> end 
|  9> *xyz 0 1 
| 10> O   2.98579685529314 0.88758230159078 -0.86184571092411
| 11> O   -0.03983205397054 0.68929041702508 -2.10362336723772
| 12> O   0.93431434349854 -3.13274393337945 -0.68767288184107
| 13> O   -3.75829998830163 -0.84727300865116 -0.0472717177755
| 14> N   0.21184538946282 -1.54604804365365 0.7617588924445
| 15> N   -2.13631993928911 0.03188773433438 1.27350571071531
| 16> N   2.02598672506387 -1.14318467211666 -0.64531219127023
| 17> N   -1.91814233924584 0.03137116037665 -1.04498946748291
| 18> C   1.18097737274226 0.71693507080484 0.70173889017321
| 19> C   -0.20686880480777 1.27024627933494 0.21345042231937
| 20> C   0.41441080275909 -0.34173258966541 1.52336266615173
| 21> C   -0.82922175114212 0.58960593673968 1.44434972027296
| 22> C   1.92822011286806 1.69488653817281 1.5963734975385
| 23> C   -0.37809776891576 2.77134929626422 0.04819649358288
| 24> C   2.1403947470937 0.1972384729179 -0.35038567829864
| 25> C   -0.67361678962426 0.6214190571346 -1.0793014500539
| 26> C   1.04142578622994 -2.02697492875068 -0.21027082435993
| 27> C   -2.68467002550422 -0.30396816036989 0.07167054343891
| 28> H   0.80817443950001 -0.54572267081061 2.51895215321335
| 29> H   -0.83785272399001 1.27240685039143 2.28901317073582
| 30> H   2.31167340578204 2.52284411740894 1.00913016264629
| 31> H   1.28982602448342 2.08257620823614 2.38710022492991
| 32> H   2.77390820759972 1.19140411795486 2.06045858523949
| 33> H   -1.41857211141493 3.00964947214868 -0.16882755561625
| 34> H   -0.09065531563179 3.29799318042223 0.95389844358819
| 35> H   0.23426221611057 3.12492645074476 -0.77764887675592
| 36> H   -0.46772570547622 -2.21560145172536 1.0787081584806
| 37> H   -2.71769301149571 -0.17090724573546 2.06627440900372
| 38> H   2.60065167263658 -1.49057255715425 -1.3966820077142
| 39> H   -2.27169977231386 -0.32388339999036 -1.91951041514436
| 40> *
| 41> 
| 42>                          ****END OF INPUT****
================================================================================

                       *****************************
                       * Geometry Optimization Run *
                       *****************************

Geometry optimization settings:
Update method            Update   .... BFGS
Choice of coordinates    CoordSys .... (2022) Redundant Internals
Initial Hessian          InHess   .... Almloef's Model
Max. no of cycles        MaxIter  .... 300

Convergence Tolerances:
Energy Change            TolE     ....  5.0000e-06 Eh
Max. Gradient            TolMAXG  ....  3.0000e-04 Eh/bohr
RMS Gradient             TolRMSG  ....  1.0000e-04 Eh/bohr
Max. Displacement        TolMAXD  ....  4.0000e-03 bohr
RMS Displacement         TolRMSD  ....  2.0000e-03 bohr
Strict Convergence                .... False

------------------------------------------------------------------------------
                        ORCA OPTIMIZATION COORDINATE SETUP
------------------------------------------------------------------------------

The optimization will be done in redundant internal coordinates (2022)
Making redundant internal coordinates   ...  (2022 redundants) done
Evaluating the initial hessian          ...  (Almloef) done
Evaluating the coordinates              ...  done
Calculating the B-matrix                .... done
Calculating the G-matrix                .... done
Diagonalizing the G-matrix              .... done
The first mode is                       ....   88
The number of degrees of freedom        ....   84
Storing new coordinates                 .... done

    -----------------------------------------------------------------
                    Redundant Internal Coordinates


    -----------------------------------------------------------------
         Definition                    Initial Value    Approx d2E/dq
    -----------------------------------------------------------------
      1. B(C   9,C   8)                  2.7000         0.320344 C 
      2. B(C  10,N   4)                  1.4345         0.466977   
      3. B(C  10,C   8)                  1.6697         0.355045   
      4. B(C  11,C   9)                  1.5488         0.362641   
      5. B(C  11,C  10)                  1.9248         0.339897   
      6. B(C  11,N   5)                  1.4537         0.480746   
      7. B(C  12,C   8)                  1.5249         0.385345   
      8. B(C  13,C   9)                  1.5275         0.387770   
      9. B(C  14,O   0)                  1.2161         1.102736   
     10. B(C  14,N   6)                  1.3895         0.586441   
     11. B(C  14,C   8)                  1.4970         0.393636   
     12. B(C  15,O   1)                  1.2107         1.098286   
     13. B(C  15,N   7)                  1.3645         0.585369   
     14. B(C  15,C   9)                  1.5238         0.387723   
     15. B(C  16,O   2)                  1.2122         1.087341   
     16. B(C  16,N   4)                  1.3946         0.612509   
     17. B(C  16,N   6)                  1.4410         0.554006   
     18. B(C  17,O   3)                  1.2135         1.087510   
     19. B(C  17,N   5)                  1.3637         0.617844   
     20. B(C  17,N   7)                  1.3813         0.548746   
     21. B(H  18,C  10)                  1.0944         0.360246   
     22. B(H  19,C  11)                  1.0886         0.365213   
     23. B(H  20,C  12)                  1.0907         0.366664   
     24. B(H  21,C  12)                  1.0918         0.363151   
     25. B(H  22,C  12)                  1.0925         0.362563   
     26. B(H  23,C  13)                  1.0962         0.361089   
     27. B(H  24,C  13)                  1.0869         0.364889   
     28. B(H  25,C  13)                  1.0930         0.363812   
     29. B(H  26,N   4)                  1.0170         0.440286   
     30. B(H  27,N   5)                  1.0058         0.442686   
     31. B(H  28,N   6)                  1.0138         0.436367   
     32. B(H  29,N   7)                  1.0081         0.435953   
     33. A(C  16,N   4,H  26)          114.1818         0.358987   
     34. A(C  10,N   4,H  26)          119.7032         0.342908   
     35. A(C  10,N   4,C  16)          124.6163         0.406446   
     36. A(C  11,N   5,H  27)          118.8335         0.344898   
     37. A(C  11,N   5,C  17)          128.9218         0.409168   
     38. A(C  17,N   5,H  27)          112.2204         0.359850   
     39. A(C  14,N   6,H  28)          115.9909         0.355801   
     40. A(C  16,N   6,H  28)          114.4856         0.352388   
     41. A(C  14,N   6,C  16)          128.2196         0.415733   
     42. A(C  15,N   7,C  17)          126.7012         0.414893   
     43. A(C  17,N   7,H  29)          115.3609         0.351763   
     44. A(C  15,N   7,H  29)          117.3567         0.355634   
     45. A(C   9,C   8,C  14)          125.3140         0.357126   
     46. A(C  10,C   8,C  12)          116.9076         0.362122   
     47. A(C  10,C   8,C  14)          123.8908         0.363441   
     48. A(C   9,C   8,C  12)          115.9291         0.355837   
     49. A(C  12,C   8,C  14)          103.1501         0.368575   
     50. A(C   9,C   8,C  10)           70.1202         0.350937   
     51. A(C   8,C   9,C  15)          110.4854         0.356209   
     52. A(C  11,C   9,C  15)          114.4315         0.363816   
     53. A(C   8,C   9,C  13)          125.0537         0.356216   
     54. A(C  13,C   9,C  15)          104.7051         0.368015   
     55. A(C   8,C   9,C  11)           79.7135         0.352195 C 
     56. A(C  11,C   9,C  13)          121.3422         0.363823   
     57. A(N   4,C  10,C   8)          107.7351         0.371914   
     58. A(N   4,C  10,H  18)          116.0215         0.334496   
     59. A(C   8,C  10,H  18)          108.7862         0.321646   
     60. A(C  11,C  10,H  18)          113.6068         0.319361   
     61. A(N   4,C  10,C  11)          104.6654         0.369136   
     62. A(C   8,C  10,C  11)          105.3625         0.354473   
     63. A(N   5,C  11,C  10)          119.3338         0.370984   
     64. A(C   9,C  11,C  10)           98.7628         0.355748   
     65. A(N   5,C  11,C   9)          109.4217         0.375149   
     66. A(N   5,C  11,H  19)          108.8398         0.336883   
     67. A(C   9,C  11,H  19)          110.8136         0.323489   
     68. A(C  10,C  11,H  19)          109.2343         0.320077   
     69. A(C   8,C  12,H  20)          110.4803         0.326948   
     70. A(C   8,C  12,H  21)          111.4135         0.326430   
     71. A(H  20,C  12,H  21)          109.1280         0.292054   
     72. A(C   8,C  12,H  22)          109.3889         0.326343   
     73. A(H  20,C  12,H  22)          107.9372         0.291979   
     74. A(H  21,C  12,H  22)          108.4042         0.291537   
     75. A(H  23,C  13,H  25)          108.4346         0.291434   
     76. A(C   9,C  13,H  23)          110.2562         0.326461   
     77. A(C   9,C  13,H  24)          110.8027         0.327024   
     78. A(H  23,C  13,H  24)          108.2944         0.291570   
     79. A(C   9,C  13,H  25)          110.1069         0.326865   
     80. A(H  24,C  13,H  25)          108.8847         0.291914   
     81. A(O   0,C  14,C   8)          125.0731         0.440771   
     82. A(N   6,C  14,C   8)          110.6286         0.393922   
     83. A(O   0,C  14,N   6)          124.2836         0.470819   
     84. A(O   1,C  15,N   7)          121.3786         0.470312   
     85. A(O   1,C  15,C   9)          122.0578         0.439248   
     86. A(N   7,C  15,C   9)          116.4349         0.392753   
     87. A(O   2,C  16,N   4)          120.8983         0.473371   
     88. A(O   2,C  16,N   6)          119.7696         0.464736   
     89. A(N   4,C  16,N   6)          119.3297         0.418965   
     90. A(O   3,C  17,N   7)          121.3547         0.463939   
     91. A(N   5,C  17,N   7)          114.9413         0.418900   
     92. A(O   3,C  17,N   5)          123.6878         0.474140   
     93. D(C  11,C   9,C   8,C  10)     18.9404         0.008410   
     94. D(C  11,C   9,C   8,C  12)    -92.1160         0.008410   
     95. D(C  11,C   9,C   8,C  14)    137.0070         0.008410   
     96. D(C  13,C   9,C   8,C  10)    140.1686         0.008410   
     97. D(C  13,C   9,C   8,C  12)     29.1122         0.008410   
     98. D(C  13,C   9,C   8,C  14)   -101.7649         0.008410   
     99. D(N   4,C  10,C   8,C  12)   -154.3910         0.010134   
    100. D(C   8,C  10,N   4,H  26)   -170.3947         0.018626   
    101. D(C  11,C  10,N   4,C  16)    136.1959         0.018626   
    102. D(C  11,C  10,C   8,C  14)   -135.2984         0.010134   
    103. D(N   4,C  10,C   8,C  14)    -23.9817         0.010134   
    104. D(C   8,C  10,N   4,C  16)     24.4059         0.018626   
    105. D(C  11,C  10,N   4,H  26)    -58.6047         0.018626   
    106. D(C  11,C  10,C   8,C  12)     94.2923         0.010134   
    107. D(H  18,C  10,N   4,C  16)    -97.7605         0.018626   
    108. D(N   4,C  10,C   8,C   9)     95.8595         0.010134   
    109. D(C  11,C  10,C   8,C   9)    -15.4572         0.010134   
    110. D(C   9,C  11,N   5,H  27)   -158.6960         0.019770   
    111. D(N   5,C  11,C  10,N   4)     30.9556         0.009355   
    112. D(C   9,C  11,N   5,C  17)     23.2501         0.019770   
    113. D(C  10,C  11,C   9,C   8)    -15.5407         0.010540   
    114. D(C  10,C  11,N   5,C  17)    -89.2960         0.019770   
    115. D(H  19,C  11,N   5,C  17)    144.4749         0.019770   
    116. D(C  10,C  11,C   9,C  13)   -140.4955         0.010540   
    117. D(C  10,C  11,N   5,H  27)     88.7579         0.019770   
    118. D(N   5,C  11,C   9,C  15)    -33.0348         0.010540   
    119. D(N   5,C  11,C  10,H  18)    -96.5812         0.009355   
    120. D(N   5,C  11,C   9,C   8)   -140.9869         0.010540   
    121. D(N   5,C  11,C   9,C  13)     94.0583         0.010540   
    122. D(C  10,C  11,C   9,C  15)     92.4114         0.010540   
    123. D(N   5,C  11,C  10,C   8)    144.4364         0.009355   
    124. D(C   9,C  11,C  10,N   4)    -87.2444         0.009355   
    125. D(C   9,C  11,C  10,C   8)     26.2364         0.009355   
    126. D(C   9,C  11,C  10,H  18)    145.2189         0.009355   
    127. D(H  20,C  12,C   8,C   9)    -80.9647         0.011818   
    128. D(H  20,C  12,C   8,C  10)   -160.7540         0.011818   
    129. D(H  20,C  12,C   8,C  14)     59.7189         0.011818   
    130. D(H  21,C  12,C   8,C   9)     40.5149         0.011818   
    131. D(H  21,C  12,C   8,C  10)    -39.2743         0.011818   
    132. D(H  21,C  12,C   8,C  14)   -178.8015         0.011818   
    133. D(H  23,C  13,C   9,C   8)   -170.7184         0.011960   
    134. D(H  23,C  13,C   9,C  11)    -70.8211         0.011960   
    135. D(H  23,C  13,C   9,C  15)     60.5171         0.011960   
    136. D(H  24,C  13,C   9,C   8)    -50.8419         0.011960   
    137. D(H  24,C  13,C   9,C  11)     49.0554         0.011960   
    138. D(H  24,C  13,C   9,C  15)   -179.6064         0.011960   
    139. D(N   6,C  14,C   8,C  10)      8.4534         0.011517   
    140. D(O   0,C  14,N   6,H  28)     -5.6208         0.027624   
    141. D(C   8,C  14,N   6,C  16)      9.5857         0.027624   
    142. D(C   8,C  14,N   6,H  28)    175.7124         0.027624   
    143. D(O   0,C  14,C   8,C   9)    101.2981         0.011517   
    144. D(O   0,C  14,C   8,C  10)   -170.2007         0.011517   
    145. D(O   0,C  14,C   8,C  12)    -34.4101         0.011517   
    146. D(O   0,C  14,N   6,C  16)   -171.7475         0.027624   
    147. D(N   6,C  14,C   8,C   9)    -80.0479         0.011517   
    148. D(N   7,C  15,C   9,C   8)    118.7616         0.011191   
    149. D(O   1,C  15,N   7,H  29)     -1.6170         0.027516   
    150. D(C   9,C  15,N   7,C  17)    -14.8516         0.027516   
    151. D(C   9,C  15,N   7,H  29)    174.3408         0.027516   
    152. D(O   1,C  15,C   9,C   8)    -65.3104         0.011191   
    153. D(O   1,C  15,C   9,C  11)   -153.0377         0.011191   
    154. D(O   1,C  15,N   7,C  17)    169.1906         0.027516   
    155. D(O   1,C  15,C   9,C  13)     71.7377         0.011191   
    156. D(N   7,C  15,C   9,C  11)     31.0342         0.011191   
    157. D(O   2,C  16,N   4,C  10)    169.6442         0.030322   
    158. D(O   2,C  16,N   4,H  26)      3.7216         0.030322   
    159. D(N   6,C  16,N   4,C  10)    -10.9199         0.030322   
    160. D(N   6,C  16,N   4,H  26)   -176.8424         0.030322   
    161. D(O   2,C  16,N   6,C  14)    169.2904         0.024482   
    162. D(O   2,C  16,N   6,H  28)      2.9896         0.024482   
    163. D(N   4,C  16,N   6,C  14)    -10.1520         0.024482   
    164. D(N   4,C  16,N   6,H  28)   -176.4529         0.024482   
    165. D(O   3,C  17,N   5,C  11)    174.4528         0.030894   
    166. D(O   3,C  17,N   5,H  27)     -3.7056         0.030894   
    167. D(N   7,C  17,N   5,C  11)     -6.9965         0.030894   
    168. D(N   7,C  17,N   5,H  27)    174.8451         0.030894   
    169. D(O   3,C  17,N   7,C  15)   -179.8397         0.023995   
    170. D(O   3,C  17,N   7,H  29)     -8.8735         0.023995   
    171. D(N   5,C  17,N   7,C  15)      1.5724         0.023995   
    172. D(N   5,C  17,N   7,H  29)    172.5387         0.023995   
    -----------------------------------------------------------------

Number of atoms                         .... 30
Number of degrees of freedom            .... 172


         *************************************************************
         *                GEOMETRY OPTIMIZATION CYCLE   1            *
         *************************************************************
---------------------------------
CARTESIAN COORDINATES (ANGSTROEM)
---------------------------------
  O      3.746510    0.564329   -0.563634
  O     -0.561140    1.043218   -2.261168
  O      1.044980   -3.146271   -0.635799
  O     -3.945100   -0.959002   -0.060066
  N      0.317254   -1.495972    0.741701
  N     -2.318052    0.050551    1.165282
  N      2.451543   -1.338993   -0.445925
  N     -2.288373    0.135610   -1.147273
  C      1.756820    0.560558    0.797661
  C     -0.669079    1.509704    0.087639
  C      0.557896   -0.330899    1.543187
  C     -1.044168    0.721234    1.366916
  C      2.594604    1.471498    1.688590
  C     -1.021994    2.987801   -0.066755
  C      2.767437   -0.020538   -0.141446
  C     -1.135631    0.862938   -1.210861
  C      1.245276   -2.062110   -0.131882
  C     -2.919099   -0.313432   -0.003396
  H      0.849537   -0.514563    2.581929
  H     -1.130192    1.389514    2.221883
  H      3.093496    2.235637    1.091320
  H      1.981885    1.956737    2.450880
  H      3.364548    0.880340    2.189775
  H     -2.103500    3.107923   -0.199473
  H     -0.721713    3.550330    0.813406
  H     -0.517910    3.404990   -0.942194
  H     -0.479429   -2.093550    0.947679
  H     -2.853597   -0.225735    1.970585
  H      3.046674   -1.791717   -1.130493
  H     -2.656884   -0.225129   -2.013466

----------------------------
CARTESIAN COORDINATES (A.U.)
----------------------------
  NO LB      ZA    FRAG     MASS         X           Y           Z
   0 O     8.0000    0    15.999    7.079878    1.066427   -1.065115
   1 O     8.0000    0    15.999   -1.060401    1.971396   -4.272988
   2 O     8.0000    0    15.999    1.974726   -5.945590   -1.201485
   3 O     8.0000    0    15.999   -7.455159   -1.812252   -0.113508
   4 N     7.0000    0    14.007    0.599522   -2.826978    1.401613
   5 N     7.0000    0    14.007   -4.380484    0.095528    2.202063
   6 N     7.0000    0    14.007    4.632746   -2.530330   -0.842676
   7 N     7.0000    0    14.007   -4.324398    0.256265   -2.168031
   8 C     6.0000    0    12.011    3.319909    1.059300    1.507361
   9 C     6.0000    0    12.011   -1.264375    2.852926    0.165613
  10 C     6.0000    0    12.011    1.054272   -0.625309    2.916200
  11 C     6.0000    0    12.011   -1.973191    1.362935    2.583096
  12 C     6.0000    0    12.011    4.903091    2.780729    3.190972
  13 C     6.0000    0    12.011   -1.931288    5.646125   -0.126149
  14 C     6.0000    0    12.011    5.229697   -0.038812   -0.267295
  15 C     6.0000    0    12.011   -2.146032    1.630717   -2.288197
  16 C     6.0000    0    12.011    2.353231   -3.896824   -0.249220
  17 C     6.0000    0    12.011   -5.516297   -0.592300   -0.006417
  18 H     1.0000    0     1.008    1.605393   -0.972383    4.879138
  19 H     1.0000    0     1.008   -2.135754    2.625801    4.198751
  20 H     1.0000    0     1.008    5.845860    4.224742    2.062296
  21 H     1.0000    0     1.008    3.745221    3.697697    4.631492
  22 H     1.0000    0     1.008    6.358074    1.663602    4.138075
  23 H     1.0000    0     1.008   -3.975039    5.873123   -0.376948
  24 H     1.0000    0     1.008   -1.363841    6.709151    1.537115
  25 H     1.0000    0     1.008   -0.978708    6.434499   -1.780489
  26 H     1.0000    0     1.008   -0.905990   -3.956236    1.790853
  27 H     1.0000    0     1.008   -5.392516   -0.426577    3.723866
  28 H     1.0000    0     1.008    5.757379   -3.385854   -2.136321
  29 H     1.0000    0     1.008   -5.020782   -0.425433   -3.804900

--------------------------------
INTERNAL COORDINATES (ANGSTROEM)
--------------------------------
 O      0   0   0     0.000000000000     0.00000000     0.00000000
 O      1   0   0     3.276547224713     0.00000000     0.00000000
 O      2   1   0     4.190682946307    73.29092113     0.00000000
 O      2   1   3     4.518474637089   127.44709352    53.95475711
 N      3   2   1     2.267248928620    60.24193841    80.78937904
 N      4   2   1     2.268963619588    62.92622666    27.43118870
 N      1   2   3     2.256576334345    65.74096506   357.61235796
 N      2   1   3     2.254243334192   127.52491870    57.66431925
 C      1   2   3     2.394011413247    63.06732880   286.37055960
 C      9   1   2     1.571844755014   115.95449945   332.88544696
 C      5   3   2     1.439252850441   151.52652991   286.18182125
 C      6   4   2     1.431343055439   150.83977748   355.05159247
 C      9   1   2     1.521555738675    88.16429934   218.15250995
 C     10   9   1     1.519848178782   118.74569578   289.79399729
 C      1   2   3     1.205350858177    58.56645480   322.99572470
 C      2   1   3     1.206451409160    99.59764305    73.76644980
 C      3   2   1     1.209177686384    47.15301651    46.62139346
 C      4   2   1     1.209135524532    32.99112947    29.98848261
 H     11   5   3     1.089889985995   112.18610762   269.23059945
 H     12   6   4     1.086162016425   109.29975388   150.93446994
 H     13   9   1     1.085082907080   110.22864580    44.99621095
 H     13   9   1     1.087703567048   111.61009477   166.52742608
 H     13   9   1     1.088144232014   109.57581940   286.25790409
 H     14  10   9     1.089253537592   110.20351681   187.26232421
 H     14  10   9     1.086403685061   110.99745457   307.14572518
 H     14  10   9     1.087208412008   109.89763282    67.87223600
 H      5   3   2     1.005273831639    87.18304645   127.88417897
 H      6   4   2     1.003794133283    88.13320973   180.35863417
 H      7   1   2     1.007707668772    89.77821731   104.06503618
 H      8   2   1     1.007966045578    89.29448577   210.74819076

---------------------------
INTERNAL COORDINATES (A.U.)
---------------------------
 O      0   0   0     0.000000000000     0.00000000     0.00000000
 O      1   0   0     6.191776919568     0.00000000     0.00000000
 O      2   1   0     7.919243082615    73.29092113     0.00000000
 O      2   1   3     8.538679607168   127.44709352    53.95475711
 N      3   2   1     4.284479552517    60.24193841    80.78937904
 N      4   2   1     4.287719848851    62.92622666    27.43118870
 N      1   2   3     4.264311272200    65.74096506   357.61235796
 N      2   1   3     4.259902540841   127.52491870    57.66431925
 C      1   2   3     4.524025932519    63.06732880   286.37055960
 C      9   1   2     2.970356112017   115.95449945   332.88544696
 C      5   3   2     2.719793724800   151.52652991   286.18182125
 C      6   4   2     2.704846378470   150.83977748   355.05159247
 C      9   1   2     2.875323643591    88.16429934   218.15250995
 C     10   9   1     2.872096823037   118.74569578   289.79399729
 C      1   2   3     2.277783017241    58.56645480   322.99572470
 C      2   1   3     2.279862757196    99.59764305    73.76644980
 C      3   2   1     2.285014674514    47.15301651    46.62139346
 C      4   2   1     2.284935000161    32.99112947    29.98848261
 H     11   5   3     2.059593589634   112.18610762   269.23059945
 H     12   6   4     2.052548748110   109.29975388   150.93446994
 H     13   9   1     2.050509526980   110.22864580    44.99621095
 H     13   9   1     2.055461856610   111.61009477   166.52742608
 H     13   9   1     2.056294592713   109.57581940   286.25790409
 H     14  10   9     2.058390876454   110.20351681   187.26232421
 H     14  10   9     2.053005435648   110.99745457   307.14572518
 H     14  10   9     2.054526149191   109.89763282    67.87223600
 H      5   3   2     1.899692231395    87.18304645   127.88417897
 H      6   4   2     1.896896006743    88.13320973   180.35863417
 H      7   1   2     1.904291517032    89.77821731   104.06503618
 H      8   2   1     1.904779778434    89.29448577   210.74819076

---------------------
BASIS SET INFORMATION
---------------------
There are 4 groups of distinct atoms

 Group   1 Type O   : 12s7p3d1f contracted to 6s4p3d1f pattern {621111/4111/111/1}
 Group   2 Type N   : 12s6p3d1f contracted to 6s3p3d1f pattern {621111/411/111/1}
 Group   3 Type C   : 12s6p3d1f contracted to 6s3p3d1f pattern {621111/411/111/1}
 Group   4 Type H   : 5s3p1d contracted to 3s3p1d pattern {311/111/1}

Atom   0O    basis set group =>   1
Atom   1O    basis set group =>   1
Atom   2O    basis set group =>   1
Atom   3O    basis set group =>   1
Atom   4N    basis set group =>   2
Atom   5N    basis set group =>   2
Atom   6N    basis set group =>   2
Atom   7N    basis set group =>   2
Atom   8C    basis set group =>   3
Atom   9C    basis set group =>   3
Atom  10C    basis set group =>   3
Atom  11C    basis set group =>   3
Atom  12C    basis set group =>   3
Atom  13C    basis set group =>   3
Atom  14C    basis set group =>   3
Atom  15C    basis set group =>   3
Atom  16C    basis set group =>   3
Atom  17C    basis set group =>   3
Atom  18H    basis set group =>   4
Atom  19H    basis set group =>   4
Atom  20H    basis set group =>   4
Atom  21H    basis set group =>   4
Atom  22H    basis set group =>   4
Atom  23H    basis set group =>   4
Atom  24H    basis set group =>   4
Atom  25H    basis set group =>   4
Atom  26H    basis set group =>   4
Atom  27H    basis set group =>   4
Atom  28H    basis set group =>   4
Atom  29H    basis set group =>   4
---------------------------------
AUXILIARY/J BASIS SET INFORMATION
---------------------------------
There are 4 groups of distinct atoms

 Group   1 Type O   : 12s5p4d2f1g contracted to 6s4p3d1f1g pattern {711111/2111/211/2/1}
 Group   2 Type N   : 12s5p4d2f1g contracted to 6s4p3d1f1g pattern {711111/2111/211/2/1}
 Group   3 Type C   : 12s5p4d2f1g contracted to 6s4p3d1f1g pattern {711111/2111/211/2/1}
 Group   4 Type H   : 5s2p1d contracted to 3s1p1d pattern {311/2/1}

Atom   0O    basis set group =>   1
Atom   1O    basis set group =>   1
Atom   2O    basis set group =>   1
Atom   3O    basis set group =>   1
Atom   4N    basis set group =>   2
Atom   5N    basis set group =>   2
Atom   6N    basis set group =>   2
Atom   7N    basis set group =>   2
Atom   8C    basis set group =>   3
Atom   9C    basis set group =>   3
Atom  10C    basis set group =>   3
Atom  11C    basis set group =>   3
Atom  12C    basis set group =>   3
Atom  13C    basis set group =>   3
Atom  14C    basis set group =>   3
Atom  15C    basis set group =>   3
Atom  16C    basis set group =>   3
Atom  17C    basis set group =>   3
Atom  18H    basis set group =>   4
Atom  19H    basis set group =>   4
Atom  20H    basis set group =>   4
Atom  21H    basis set group =>   4
Atom  22H    basis set group =>   4
Atom  23H    basis set group =>   4
Atom  24H    basis set group =>   4
Atom  25H    basis set group =>   4
Atom  26H    basis set group =>   4
Atom  27H    basis set group =>   4
Atom  28H    basis set group =>   4
Atom  29H    basis set group =>   4
[1738322559.455760] [ohm:647731:0]        ib_iface.c:1059 UCX  ERROR ibv_create_cq(cqe=256) failed: Connection timed out
[1738322559.457816] [ohm:647689:0]        ib_iface.c:1059 UCX  ERROR ibv_create_cq(cqe=256) failed: Connection timed out
[1738322559.459868] [ohm:647696:0]        ib_iface.c:1059 UCX  ERROR ibv_create_cq(cqe=256) failed: Connection timed out
[1738322559.460435] [ohm:647692:0]        ib_iface.c:1059 UCX  ERROR ibv_create_cq(cqe=256) failed: Connection timed out
[1738322559.463372] [ohm:647700:0]        ib_iface.c:1059 UCX  ERROR ibv_create_cq(cqe=256) failed: Connection timed out
[1738322559.465704] [ohm:647708:0]        ib_iface.c:1059 UCX  ERROR ibv_create_cq(cqe=256) failed: Connection timed out
[1738322559.468708] [ohm:647713:0]        ib_iface.c:1059 UCX  ERROR ibv_create_cq(cqe=256) failed: Connection timed out
[1738322559.469784] [ohm:647688:0]        ib_iface.c:1059 UCX  ERROR ibv_create_cq(cqe=256) failed: Connection timed out
[1738322559.469879] [ohm:647710:0]        ib_iface.c:1059 UCX  ERROR ibv_create_cq(cqe=256) failed: Connection timed out
[1738322559.471974] [ohm:647714:0]        ib_iface.c:1059 UCX  ERROR ibv_create_cq(cqe=256) failed: Connection timed out
[1738322559.474248] [ohm:647704:0]        ib_iface.c:1059 UCX  ERROR ibv_create_cq(cqe=256) failed: Connection timed out
[1738322559.482580] [ohm:647699:0]        ib_iface.c:1059 UCX  ERROR ibv_create_cq(cqe=256) failed: Connection timed out
[1738322559.502986] [ohm:647709:0]        ib_iface.c:1059 UCX  ERROR ibv_create_cq(cqe=256) failed: Connection timed out
[1738322559.505505] [ohm:647691:0]        ib_iface.c:1059 UCX  ERROR ibv_create_cq(cqe=256) failed: Connection timed out
[1738322559.509067] [ohm:647737:0]        ib_iface.c:1059 UCX  ERROR ibv_create_cq(cqe=256) failed: Connection timed out
[1738322559.527716] [ohm:647697:0]        ib_iface.c:1059 UCX  ERROR ibv_create_cq(cqe=256) failed: Connection timed out
[1738322559.527703] [ohm:647705:0]        ib_iface.c:1059 UCX  ERROR ibv_create_cq(cqe=256) failed: Connection timed out
[1738322559.527725] [ohm:647690:0]        ib_iface.c:1059 UCX  ERROR ibv_create_cq(cqe=256) failed: Connection timed out
[1738322559.528503] [ohm:647693:0]        ib_iface.c:1059 UCX  ERROR ibv_create_cq(cqe=256) failed: Connection timed out
[1738322559.529746] [ohm:647701:0]        ib_iface.c:1059 UCX  ERROR ibv_create_cq(cqe=256) failed: Connection timed out
[1738322559.532462] [ohm:647707:0]        ib_iface.c:1059 UCX  ERROR ibv_create_cq(cqe=256) failed: Connection timed out
[1738322559.532455] [ohm:647712:0]        ib_iface.c:1059 UCX  ERROR ibv_create_cq(cqe=256) failed: Connection timed out
[1738322559.535524] [ohm:647711:0]        ib_iface.c:1059 UCX  ERROR ibv_create_cq(cqe=256) failed: Connection timed out
[1738322559.535872] [ohm:647702:0]        ib_iface.c:1059 UCX  ERROR ibv_create_cq(cqe=256) failed: Connection timed out
[1738322559.536095] [ohm:647695:0]        ib_iface.c:1059 UCX  ERROR ibv_create_cq(cqe=256) failed: Connection timed out
[1738322559.536221] [ohm:647703:0]        ib_iface.c:1059 UCX  ERROR ibv_create_cq(cqe=256) failed: Connection timed out
[1738322559.536274] [ohm:647739:0]        ib_iface.c:1059 UCX  ERROR ibv_create_cq(cqe=256) failed: Connection timed out
[1738322559.536411] [ohm:647726:0]        ib_iface.c:1059 UCX  ERROR ibv_create_cq(cqe=256) failed: Connection timed out
[1738322559.536448] [ohm:647698:0]        ib_iface.c:1059 UCX  ERROR ibv_create_cq(cqe=256) failed: Connection timed out
[1738322559.536517] [ohm:647706:0]        ib_iface.c:1059 UCX  ERROR ibv_create_cq(cqe=256) failed: Connection timed out
[1738322559.536573] [ohm:647721:0]        ib_iface.c:1059 UCX  ERROR ibv_create_cq(cqe=256) failed: Connection timed out
[1738322559.537159] [ohm:647694:0]        ib_iface.c:1059 UCX  ERROR ibv_create_cq(cqe=256) failed: Connection timed out


           ************************************************************
           *        Program running with 32 parallel MPI-processes    *
           *              working on a common directory               *
           ************************************************************
------------------------------------------------------------------------------
                             ORCA STARTUP CALCULATIONS
                           -- RI-GTO INTEGRALS CHOSEN --
------------------------------------------------------------------------------
------------------------------------------------------------------------------
                   ___                                                        
                  /   \      - P O W E R E D   B Y -                         
                 /     \                                                     
                 |  |  |   _    _      __       _____    __    __             
                 |  |  |  | |  | |    /  \     |  _  \  |  |  /  |          
                  \  \/   | |  | |   /    \    | | | |  |  | /  /          
                 / \  \   | |__| |  /  /\  \   | |_| |  |  |/  /          
                |  |  |   |  __  | /  /__\  \  |    /   |      \           
                |  |  |   | |  | | |   __   |  |    \   |  |\   \          
                \     /   | |  | | |  |  |  |  | |\  \  |  | \   \       
                 \___/    |_|  |_| |__|  |__|  |_| \__\ |__|  \__/        
                                                                              
                      - O R C A' S   B I G   F R I E N D -                    
                                      &                                       
                       - I N T E G R A L  F E E D E R -                       
                                                                              
 v1 FN, 2020, v2 2021, v3 2022-2024                                           
------------------------------------------------------------------------------


----------------------
SHARK INTEGRAL PACKAGE
----------------------

Number of atoms                             ...     30
Number of basis functions                   ...    882
Number of shells                            ...    322
Maximum angular momentum                    ...      3
Integral batch strategy                     ... SHARK/LIBINT Hybrid
RI-J (if used) integral strategy            ... SPLIT-RIJ (Revised 2003 algorithm where possible)
Printlevel                                  ...      1
Contraction scheme used                     ... SEGMENTED contraction
Prescreening option                         ... SCHWARTZ
   Thresh                                   ... 2.500e-11
   Tcut                                     ... 2.500e-12
   Tpresel                                  ... 2.500e-12 
Coulomb Range Separation                    ... NOT USED
Exchange Range Separation                   ... Long Range
   Mu parameter                             ... 3.000e-01
   Scaling (regular/separated)              ... 1.500e-01 8.500e-01
Multipole approximations                    ... NOT USED
Finite Nucleus Model                        ... NOT USED
CABS basis                                  ... NOT available
Auxiliary Coulomb fitting basis             ... AVAILABLE
   # of basis functions in Aux-J            ...   1014
   # of shells in Aux-J                     ...    330
   Maximum angular momentum in Aux-J        ...      4
Auxiliary J/K fitting basis                 ... NOT available
Auxiliary Correlation fitting basis         ... NOT available
Auxiliary 'external' fitting basis          ... NOT available

Checking pre-screening integrals            ... done (  0.0 sec) Dimension = 322
Check shell pair data                       ... done (  0.0 sec)
Shell pair information
Shell pair cut-off parameter TPreSel        ...   2.5e-12
Total number of shell pairs                 ...     52003
Shell pairs after pre-screening             ...     43829
Total number of primitive shell pairs       ...    129718
Primitive shell pairs kept                  ...     81193
          la=0 lb=0:   8505 shell pairs
          la=1 lb=0:  11633 shell pairs
          la=1 lb=1:   4023 shell pairs
          la=2 lb=0:   7873 shell pairs
          la=2 lb=1:   5438 shell pairs
          la=2 lb=2:   1876 shell pairs
          la=3 lb=0:   1981 shell pairs
          la=3 lb=1:   1422 shell pairs
          la=3 lb=2:    951 shell pairs
          la=3 lb=3:    127 shell pairs

Calculating one electron integrals          ... done (  0.1 sec)
Calculating RI/J V-Matrix + Cholesky decomp.... done (  0.1 sec)
Calculating Nuclear repulsion               ... done (  0.0 sec) ENN=   1384.456842122041 Eh

Diagonalization of the overlap matrix:
Smallest eigenvalue                        ... 9.887e-07
Time for diagonalization                   ...    0.118 sec
Threshold for overlap eigenvalues          ... 1.000e-07
Number of eigenvalues below threshold      ... 0

IMPORTANT:
Smallest eigenvalue of S below the DiffSThresh (1.000e-06) while
Thresh>1e-12 and/or TCut>1e-13! In order to avoid SCF convergence issues,
Thresh will be set to at least 1e-12 and TCut to at least 1e-13.
This can be turned off by adding %SCF DiffSThresh -1 END to the input.

Time for construction of square roots      ...    0.110 sec
Total time needed                          ...    0.239 sec

-------------------
DFT GRID GENERATION
-------------------

General Integration Accuracy     IntAcc      ... 4.388
Radial Grid Type                 RadialGrid  ... OptM3 with GC (2021)
Angular Grid (max. ang.)         AngularGrid ... 4 (Lebedev-302)
Angular grid pruning method      GridPruning ... 4 (adaptive)
Weight generation scheme         WeightScheme... mBecke (2022)
Basis function cutoff            BFCut       ... 1.0000e-11
Integration weight cutoff        WCut        ... 1.0000e-14
Partially contracted basis set               ... off
Rotationally invariant grid construction     ... off
Angular grids for H and He will be reduced by one unit
Diffuse basis detected: some atoms will have their outermost
                        angular grid increased by 1.

Total number of grid points                  ...   152742
Total number of batches                      ...     2402
Average number of points per batch           ...       63
Average number of grid points per atom       ...     5091

--------------------
COSX GRID GENERATION
--------------------

GRIDX 1
-------
General Integration Accuracy     IntAcc      ... 3.816
Radial Grid Type                 RadialGrid  ... OptM3 with GC (2021)
Angular Grid (max. ang.)         AngularGrid ... 1 (Lebedev-50)
Angular grid pruning method      GridPruning ... 4 (adaptive)
Weight generation scheme         WeightScheme... mBecke (2022)
Basis function cutoff            BFCut       ... 1.0000e-11
Integration weight cutoff        WCut        ... 1.0000e-14
Partially contracted basis set               ... on
Rotationally invariant grid construction     ... off
Angular grids for H and He will be reduced by one unit
Diffuse basis detected: some atoms will have their outermost
                        angular grid increased by 1.

Total number of grid points                  ...    19145
Total number of batches                      ...      168
Average number of points per batch           ...      113
Average number of grid points per atom       ...      638
UseSFitting                                  ... on

GRIDX 2
-------
General Integration Accuracy     IntAcc      ... 4.020
Radial Grid Type                 RadialGrid  ... OptM3 with GC (2021)
Angular Grid (max. ang.)         AngularGrid ... 2 (Lebedev-110)
Angular grid pruning method      GridPruning ... 4 (adaptive)
Weight generation scheme         WeightScheme... mBecke (2022)
Basis function cutoff            BFCut       ... 1.0000e-11
Integration weight cutoff        WCut        ... 1.0000e-14
Partially contracted basis set               ... on
Rotationally invariant grid construction     ... off
Angular grids for H and He will be reduced by one unit
Diffuse basis detected: some atoms will have their outermost
                        angular grid increased by 1.

Total number of grid points                  ...    46317
Total number of batches                      ...      378
Average number of points per batch           ...      122
Average number of grid points per atom       ...     1544
UseSFitting                                  ... on

GRIDX 3
-------
General Integration Accuracy     IntAcc      ... 4.338
Radial Grid Type                 RadialGrid  ... OptM3 with GC (2021)
Angular Grid (max. ang.)         AngularGrid ... 3 (Lebedev-194)
Angular grid pruning method      GridPruning ... 4 (adaptive)
Weight generation scheme         WeightScheme... mBecke (2022)
Basis function cutoff            BFCut       ... 1.0000e-11
Integration weight cutoff        WCut        ... 1.0000e-14
Partially contracted basis set               ... on
Rotationally invariant grid construction     ... off
Angular grids for H and He will be reduced by one unit
Diffuse basis detected: some atoms will have their outermost
                        angular grid increased by 1.

Total number of grid points                  ...   101959
Total number of batches                      ...      812
Average number of points per batch           ...      125
Average number of grid points per atom       ...     3399
UseSFitting                                  ... on
Initializing property integral containers    ... done (  0.0 sec)

SHARK setup successfully completed in   3.3 seconds

Maximum memory used throughout the entire STARTUP-calculation: 79.7 MB
[1738322563.739039] [ohm:647869:0]        ib_iface.c:1059 UCX  ERROR ibv_create_cq(cqe=256) failed: Connection timed out
[1738322563.739262] [ohm:647865:0]        ib_iface.c:1059 UCX  ERROR ibv_create_cq(cqe=256) failed: Connection timed out
[1738322563.739518] [ohm:647880:0]        ib_iface.c:1059 UCX  ERROR ibv_create_cq(cqe=256) failed: Connection timed out
[1738322563.739523] [ohm:647859:0]        ib_iface.c:1059 UCX  ERROR ibv_create_cq(cqe=256) failed: Connection timed out
[1738322563.753096] [ohm:647861:0]        ib_iface.c:1059 UCX  ERROR ibv_create_cq(cqe=256) failed: Connection timed out
[1738322563.756226] [ohm:647864:0]        ib_iface.c:1059 UCX  ERROR ibv_create_cq(cqe=256) failed: Connection timed out
[1738322563.756582] [ohm:647871:0]        ib_iface.c:1059 UCX  ERROR ibv_create_cq(cqe=256) failed: Connection timed out
[1738322563.783473] [ohm:647905:0]        ib_iface.c:1059 UCX  ERROR ibv_create_cq(cqe=256) failed: Connection timed out
[1738322563.785226] [ohm:647873:0]        ib_iface.c:1059 UCX  ERROR ibv_create_cq(cqe=256) failed: Connection timed out
[1738322563.791353] [ohm:647893:0]        ib_iface.c:1059 UCX  ERROR ibv_create_cq(cqe=256) failed: Connection timed out
[1738322563.791494] [ohm:647877:0]        ib_iface.c:1059 UCX  ERROR ibv_create_cq(cqe=256) failed: Connection timed out
[1738322563.798224] [ohm:647882:0]        ib_iface.c:1059 UCX  ERROR ibv_create_cq(cqe=256) failed: Connection timed out
[1738322563.800931] [ohm:647862:0]        ib_iface.c:1059 UCX  ERROR ibv_create_cq(cqe=256) failed: Connection timed out
[1738322563.801027] [ohm:647866:0]        ib_iface.c:1059 UCX  ERROR ibv_create_cq(cqe=256) failed: Connection timed out
[1738322563.801617] [ohm:647881:0]        ib_iface.c:1059 UCX  ERROR ibv_create_cq(cqe=256) failed: Connection timed out
[1738322563.802119] [ohm:647867:0]        ib_iface.c:1059 UCX  ERROR ibv_create_cq(cqe=256) failed: Connection timed out
[1738322563.802191] [ohm:647908:0]        ib_iface.c:1059 UCX  ERROR ibv_create_cq(cqe=256) failed: Connection timed out
[1738322563.802251] [ohm:647876:0]        ib_iface.c:1059 UCX  ERROR ibv_create_cq(cqe=256) failed: Connection timed out
[1738322563.802437] [ohm:647888:0]        ib_iface.c:1059 UCX  ERROR ibv_create_cq(cqe=256) failed: Connection timed out
[1738322563.808600] [ohm:647879:0]        ib_iface.c:1059 UCX  ERROR ibv_create_cq(cqe=256) failed: Connection timed out
[1738322563.808591] [ohm:647898:0]        ib_iface.c:1059 UCX  ERROR ibv_create_cq(cqe=256) failed: Connection timed out
[1738322563.808935] [ohm:647868:0]        ib_iface.c:1059 UCX  ERROR ibv_create_cq(cqe=256) failed: Connection timed out
[1738322563.809041] [ohm:647870:0]        ib_iface.c:1059 UCX  ERROR ibv_create_cq(cqe=256) failed: Connection timed out
[1738322563.809032] [ohm:647874:0]        ib_iface.c:1059 UCX  ERROR ibv_create_cq(cqe=256) failed: Connection timed out
[1738322563.809086] [ohm:647875:0]        ib_iface.c:1059 UCX  ERROR ibv_create_cq(cqe=256) failed: Connection timed out
[1738322563.809121] [ohm:647860:0]        ib_iface.c:1059 UCX  ERROR ibv_create_cq(cqe=256) failed: Connection timed out
[1738322563.809187] [ohm:647883:0]        ib_iface.c:1059 UCX  ERROR ibv_create_cq(cqe=256) failed: Connection timed out
[1738322563.809376] [ohm:647858:0]        ib_iface.c:1059 UCX  ERROR ibv_create_cq(cqe=256) failed: Connection timed out
[1738322563.809379] [ohm:647863:0]        ib_iface.c:1059 UCX  ERROR ibv_create_cq(cqe=256) failed: Connection timed out
[1738322563.809424] [ohm:647878:0]        ib_iface.c:1059 UCX  ERROR ibv_create_cq(cqe=256) failed: Connection timed out
[1738322563.809456] [ohm:647872:0]        ib_iface.c:1059 UCX  ERROR ibv_create_cq(cqe=256) failed: Connection timed out
[1738322563.809518] [ohm:647903:0]        ib_iface.c:1059 UCX  ERROR ibv_create_cq(cqe=256) failed: Connection timed out


           ************************************************************
           *        Program running with 32 parallel MPI-processes    *
           *              working on a common directory               *
           ************************************************************
-------------------------------------------------------------------------------
                                 ORCA GUESS
                   Start orbitals & Density for SCF / CASSCF
-------------------------------------------------------------------------------

------------
SCF SETTINGS
------------
Hamiltonian:
 Density Functional     Method          .... DFT(GTOs)
  Functional kind                       .... Exchange-Correlation
  Functional name                       .... wB97M-V exchange-correlation functional
  Functional family                     .... Hybrid MGGA
  Functional refs                              
    [ 0] N. Mardirossian and M. Head-Gordon.,  J. Chem. Phys. 144, 214110 (2016), doi: 10.1063/1.4952647
  Fraction of HF Exchange (short range) .... 0.1500
  Fraction of HF Exchange (long range)  .... 1.0000
  Range separation parameter mu         .... 0.3000
  Functional external parameters        .... 17
    Parameter  0 _cx00      =  8.500000e-01 : u^00 coefficient for exchange
    Parameter  1 _cx01      =  1.007000e+00 : u^01 coefficient for exchange
    Parameter  2 _cx10      =  2.590000e-01 : u^10 coefficient for exchange
    Parameter  3 _css00     =  4.430000e-01 : u^00 coefficient for same-spin correlation
    Parameter  4 _css04     = -1.437000e+00 : u^04 coefficient for same-spin correlation
    Parameter  5 _css10     = -4.535000e+00 : u^10 coefficient for same-spin correlation
    Parameter  6 _css20     = -3.390000e+00 : u^20 coefficient for same-spin correlation
    Parameter  7 _css43     =  4.278000e+00 : u^43 coefficient for same-spin correlation
    Parameter  8 _cos00     =  1.000000e+00 : u^00 coefficient for opposite-spin correlation
    Parameter  9 _cos10     =  1.358000e+00 : u^10 coefficient for opposite-spin correlation
    Parameter 10 _cos20     =  2.924000e+00 : u^20 coefficient for opposite-spin correlation
    Parameter 11 _cos21     = -8.812000e+00 : u^21 coefficient for opposite-spin correlation
    Parameter 12 _cos60     = -1.390000e+00 : u^60 coefficient for opposite-spin correlation
    Parameter 13 _cos61     =  9.142000e+00 : u^61 coefficient for opposite-spin correlation
    Parameter 14 _alpha     =  1.000000e+00 : fraction of HF exchange
    Parameter 15 _beta      = -8.500000e-01 : fraction of short-range exchange
    Parameter 16 _omega     =  3.000000e-01 : range-separation constant
 Long-range corrected/Screened/Range-Separated Hybrid DFT is turned on
   Amount of maximum screened exact exchange              ....  0.850000
   Range separation parameter mu (erf(mu*r12)/r12)        ....  0.300000
 RI-approximation to the Coulomb term is turned on
   Number of AuxJ basis functions       .... 1014
   RIJ-COSX (HFX calculated with COS-X)).... on


General Settings:
 Integral files         IntName         .... orca
 Hartree-Fock type      HFTyp           .... RHF
 Total Charge           Charge          ....    0
 Multiplicity           Mult            ....    1
 Number of Electrons    NEL             ....  132
 Basis Dimension        Dim             ....  882
 Nuclear Repulsion      ENuc            ....   1384.4568421220 Eh

Convergence Acceleration:
 AO-DIIS                CNVDIIS         .... on
   Start iteration      DIISMaxIt       ....    12
   Startup error        DIISStart       ....  0.200000
   # of expansion vecs  DIISMaxEq       ....     5
   Bias factor          DIISBfac        ....   1.050
   Max. coefficient     DIISMaxC        ....  10.000
 MO-DIIS                CNVKDIIS        .... off
 Trust-Rad. Augm. Hess. CNVTRAH         .... auto
   Auto Start mean grad. ratio tolernc. ....  1.125000
   Auto Start start iteration           ....    50
   Auto Start num. interpolation iter.  ....    10
   Max. Number of Micro iterations      ....    24
   Max. Number of Macro iterations      .... Maxiter - #DIIS iter
   Number of Davidson start vectors     ....     2
   Converg. threshold    (grad. norm)   ....   1.000e-05
   Grad. Scal. Fac. for Micro threshold ....   0.100
   Minimum threshold for Micro iter.    ....   1.000e-02
   NR start threshold (gradient norm)   ....   1.000e-04
   Initial trust radius                 ....   0.400
   Minimum AH scaling param. (alpha)    ....   1.000
   Maximum AH scaling param. (alpha)    .... 1000.000
   Quad. conv. algorithm                .... NR
   White noise on init. David. guess    .... on
   Maximum white noise                  ....   0.010
   Pseudo random numbers                .... off
   Inactive MOs                         .... canonical
   Orbital update algorithm             .... Taylor
   Preconditioner                       .... Diag
   Full preconditioner red. dimension   ....   250
 SOSCF                  CNVSOSCF        .... on
   Start iteration      SOSCFMaxIt      ....   150
   Startup grad/error   SOSCFStart      ....  0.003300
   Hessian update       SOSCFHessUp     .... L-BFGS
 Level Shifting         CNVShift        .... on
   Level shift para.    LevelShift      ....    0.2500
   Turn off err/grad.   ShiftErr        ....    0.0010
 Zerner damping         CNVZerner       .... off
 Static damping         CNVDamp         .... on
   Fraction old density DampFac         ....    0.7000
   Max. Damping (<1)    DampMax         ....    0.9800
   Min. Damping (>=0)   DampMin         ....    0.0000
   Turn off err/grad.   DampErr         ....    0.1000

SCF Procedure:
 Maximum # iterations   MaxIter         ....   125
 SCF integral mode      SCFMode         .... Direct
   Integral package                     .... SHARK and LIBINT hybrid scheme
 Reset frequency        DirectResetFreq ....    20
 Integral Threshold     Thresh          ....  1.000e-12 Eh
 Primitive CutOff       TCut            ....  1.000e-13 Eh

Convergence Tolerance:
 Convergence Check Mode ConvCheckMode   .... Total+1el-Energy
 Convergence forced     ConvForced      .... 0
 Energy Change          TolE            ....  1.000e-08 Eh
 1-El. energy change                    ....  1.000e-05 Eh
 Orbital Gradient       TolG            ....  1.000e-05
 Orbital Rotation angle TolX            ....  1.000e-05
 DIIS Error             TolErr          ....  5.000e-07

------------------------------
INITIAL GUESS: MODEL POTENTIAL
------------------------------
Loading Hartree-Fock densities                     ... done
Calculating cut-offs                               ... done
Initializing the effective Hamiltonian             ... done
Setting up the integral package (SHARK)            ... done
Starting the Coulomb interaction                   ... done (   0.1 sec)
Making the grid                                    ... done (   0.2 sec)
Mapping shells                                     ... done
Starting the XC term evaluation                    ... done (   0.2 sec)
  promolecular density results
     # of electrons  =    131.989457976
     EX              =   -113.385403785
     EC              =     -4.455259345
     EX+EC           =   -117.840663130
Transforming the Hamiltonian                       ... done (   0.1 sec)
Diagonalizing the Hamiltonian                      ... done (   0.1 sec)
Back transforming the eigenvectors                 ... done (   0.1 sec)
Now organizing SCF variables                       ... done
                      ------------------
                      INITIAL GUESS DONE (   0.9 sec)
                      ------------------
             **** ENERGY FILE WAS UPDATED (orca.en.tmp) ****
Finished Guess after   1.8 sec
Maximum memory used throughout the entire GUESS-calculation: 71.9 MB
[1738322566.005045] [ohm:648025:0]        ib_iface.c:1059 UCX  ERROR ibv_create_cq(cqe=256) failed: Connection timed out
[1738322566.005212] [ohm:648028:0]        ib_iface.c:1059 UCX  ERROR ibv_create_cq(cqe=256) failed: Connection timed out
[1738322566.031536] [ohm:648048:0]        ib_iface.c:1059 UCX  ERROR ibv_create_cq(cqe=256) failed: Connection timed out
[1738322566.034040] [ohm:648027:0]        ib_iface.c:1059 UCX  ERROR ibv_create_cq(cqe=256) failed: Connection timed out
[1738322566.034116] [ohm:648034:0]        ib_iface.c:1059 UCX  ERROR ibv_create_cq(cqe=256) failed: Connection timed out
[1738322566.035393] [ohm:648052:0]        ib_iface.c:1059 UCX  ERROR ibv_create_cq(cqe=256) failed: Connection timed out
[1738322566.035427] [ohm:648033:0]        ib_iface.c:1059 UCX  ERROR ibv_create_cq(cqe=256) failed: Connection timed out
[1738322566.035440] [ohm:648029:0]        ib_iface.c:1059 UCX  ERROR ibv_create_cq(cqe=256) failed: Connection timed out
[1738322566.044702] [ohm:648032:0]        ib_iface.c:1059 UCX  ERROR ibv_create_cq(cqe=256) failed: Connection timed out
[1738322566.044880] [ohm:648038:0]        ib_iface.c:1059 UCX  ERROR ibv_create_cq(cqe=256) failed: Connection timed out
[1738322566.045039] [ohm:648036:0]        ib_iface.c:1059 UCX  ERROR ibv_create_cq(cqe=256) failed: Connection timed out
[1738322566.047837] [ohm:648026:0]        ib_iface.c:1059 UCX  ERROR ibv_create_cq(cqe=256) failed: Connection timed out
[1738322566.048521] [ohm:648047:0]        ib_iface.c:1059 UCX  ERROR ibv_create_cq(cqe=256) failed: Connection timed out
[1738322566.048562] [ohm:648040:0]        ib_iface.c:1059 UCX  ERROR ibv_create_cq(cqe=256) failed: Connection timed out
[1738322566.053728] [ohm:648037:0]        ib_iface.c:1059 UCX  ERROR ibv_create_cq(cqe=256) failed: Connection timed out
[1738322566.053732] [ohm:648039:0]        ib_iface.c:1059 UCX  ERROR ibv_create_cq(cqe=256) failed: Connection timed out
[1738322566.053759] [ohm:648035:0]        ib_iface.c:1059 UCX  ERROR ibv_create_cq(cqe=256) failed: Connection timed out
[1738322566.053862] [ohm:648043:0]        ib_iface.c:1059 UCX  ERROR ibv_create_cq(cqe=256) failed: Connection timed out
[1738322566.078489] [ohm:648064:0]        ib_iface.c:1059 UCX  ERROR ibv_create_cq(cqe=256) failed: Connection timed out
[1738322566.078494] [ohm:648042:0]        ib_iface.c:1059 UCX  ERROR ibv_create_cq(cqe=256) failed: Connection timed out
[1738322566.078489] [ohm:648046:0]        ib_iface.c:1059 UCX  ERROR ibv_create_cq(cqe=256) failed: Connection timed out
[1738322566.078975] [ohm:648031:0]        ib_iface.c:1059 UCX  ERROR ibv_create_cq(cqe=256) failed: Connection timed out
[1738322566.079056] [ohm:648075:0]        ib_iface.c:1059 UCX  ERROR ibv_create_cq(cqe=256) failed: Connection timed out
[1738322566.079698] [ohm:648056:0]        ib_iface.c:1059 UCX  ERROR ibv_create_cq(cqe=256) failed: Connection timed out
[1738322566.080624] [ohm:648044:0]        ib_iface.c:1059 UCX  ERROR ibv_create_cq(cqe=256) failed: Connection timed out
[1738322566.080676] [ohm:648071:0]        ib_iface.c:1059 UCX  ERROR ibv_create_cq(cqe=256) failed: Connection timed out
[1738322566.081350] [ohm:648041:0]        ib_iface.c:1059 UCX  ERROR ibv_create_cq(cqe=256) failed: Connection timed out
[1738322566.081391] [ohm:648030:0]        ib_iface.c:1059 UCX  ERROR ibv_create_cq(cqe=256) failed: Connection timed out
[1738322566.081389] [ohm:648049:0]        ib_iface.c:1059 UCX  ERROR ibv_create_cq(cqe=256) failed: Connection timed out
[1738322566.081429] [ohm:648045:0]        ib_iface.c:1059 UCX  ERROR ibv_create_cq(cqe=256) failed: Connection timed out
[1738322566.081436] [ohm:648063:0]        ib_iface.c:1059 UCX  ERROR ibv_create_cq(cqe=256) failed: Connection timed out
[1738322566.081505] [ohm:648050:0]        ib_iface.c:1059 UCX  ERROR ibv_create_cq(cqe=256) failed: Connection timed out


           ************************************************************
           *        Program running with 32 parallel MPI-processes    *
           *              working on a common directory               *
           ************************************************************

-------------------------------------------------------------------------------------------
                                      ORCA LEAN-SCF
                              memory conserving SCF solver
-------------------------------------------------------------------------------------------

----------------------------------------D-I-I-S--------------------------------------------
Iteration    Energy (Eh)           Delta-E    RMSDP     MaxDP     DIISErr   Damp  Time(sec)
-------------------------------------------------------------------------------------------
               ***  Starting incremental Fock matrix formation  ***
    1    -908.0609260110720697     0.00e+00  2.38e-03  3.28e-01  2.88e-01  0.700   8.8
    2    -908.3269178344719421    -2.66e-01  1.87e-03  2.12e-01  1.35e-01  0.700   5.4
                               ***Turning on AO-DIIS***
    3    -908.4420372832666999    -1.15e-01  1.34e-03  1.46e-01  5.41e-02  0.700   5.1
    4    -908.5126471788310027    -7.06e-02  3.16e-03  3.17e-01  3.24e-02  0.000   5.0
    5    -908.6696655077323612    -1.57e-01  3.11e-04  4.85e-02  5.79e-03  0.000   5.1
                              *** Initializing SOSCF ***
---------------------------------------S-O-S-C-F--------------------------------------
Iteration    Energy (Eh)           Delta-E    RMSDP     MaxDP     MaxGrad    Time(sec)
--------------------------------------------------------------------------------------
    6    -908.6703180645620250    -6.53e-04  1.32e-04  1.16e-02  2.41e-03     5.2
               *** Restarting incremental Fock matrix formation ***
    7    -908.6705009545660232    -1.83e-04  2.25e-04  1.33e-02  8.66e-04     8.5
    8    -908.6705768200097282    -7.59e-05  1.44e-04  1.26e-02  2.97e-04     7.4
    9    -908.6705831891370053    -6.37e-06  9.44e-05  5.64e-03  1.25e-03     7.3
   10    -908.6705996243533718    -1.64e-05  2.18e-05  2.07e-03  1.81e-04     7.1
   11    -908.6706004834989017    -8.59e-07  9.58e-06  5.66e-04  8.03e-05     6.8
   12    -908.6706011575372486    -6.74e-07  3.26e-06  4.16e-04  6.64e-05     6.5
   13    -908.6706012372230816    -7.97e-08  2.52e-06  3.06e-04  1.87e-05     6.3
   14    -908.6706012777856358    -4.06e-08  1.56e-06  1.25e-04  1.17e-05     6.2
   15    -908.6706013087498377    -3.10e-08  7.40e-07  1.02e-04  2.98e-06     6.0
   16    -908.6706012888791975     1.99e-08  9.63e-07  1.25e-04  1.02e-06     5.6
                  *** Gradient check signals convergence ***

               *****************************************************
               *                     SUCCESS                       *
               *           SCF CONVERGED AFTER  16 CYCLES          *
               *****************************************************

Recomputing exchange energy using gridx3       ... done (   12.851 sec)
Old exchange energy                            :    -34.932384484 Eh
New exchange energy                            :    -34.932392207 Eh
Exchange energy change after final integration :     -0.000007723 Eh
Total energy after final integration           :   -908.670609012 Eh
             **** ENERGY FILE WAS UPDATED (orca.en.tmp) ****

----------------
TOTAL SCF ENERGY
----------------

Total Energy       :       -908.67060901201785 Eh          -24726.18433 eV

Components:
Nuclear Repulsion  :       1384.45684212204128 Eh           37672.98593 eV
Electronic Energy  :      -2293.12744341092048 Eh          -62399.17005 eV
One Electron Energy:      -3986.33663870389364 Eh         -108473.73464 eV
Two Electron Energy:       1693.20919529297316 Eh           46074.56459 eV

Virial components:
Potential Energy   :      -1813.28121311992845 Eh          -49341.89030 eV
Kinetic Energy     :        904.61060410791060 Eh           24615.70598 eV
Virial Ratio       :          2.00448812437713

DFT components:
N(Alpha)           :       65.999979966904 electrons
N(Beta)            :       65.999979966904 electrons
N(Total)           :      131.999959933808 electrons
E(XC)              :      -86.011237336682 Eh       

---------------
SCF CONVERGENCE
---------------

  Last Energy change         ...   -1.9871e-08  Tolerance :   1.0000e-08
  Last MAX-Density change    ...    1.2538e-04  Tolerance :   1.0000e-07
  Last RMS-Density change    ...    9.6281e-07  Tolerance :   5.0000e-09
  Last DIIS Error            ...    2.4067e-03  Tolerance :   5.0000e-07
  Last Orbital Gradient      ...    1.0200e-06  Tolerance :   1.0000e-05
  Last Orbital Rotation      ...    3.2888e-06  Tolerance :   1.0000e-05


----------------
ORBITAL ENERGIES
----------------

  NO   OCC          E(Eh)            E(eV) 
   0   2.0000     -19.334193      -526.1101 
   1   2.0000     -19.330798      -526.0177 
   2   2.0000     -19.328881      -525.9656 
   3   2.0000     -19.323650      -525.8233 
   4   2.0000     -14.575461      -396.6185 
   5   2.0000     -14.570716      -396.4893 
   6   2.0000     -14.565462      -396.3464 
   7   2.0000     -14.563739      -396.2995 
   8   2.0000     -10.514925      -286.1256 
   9   2.0000     -10.514328      -286.1094 
  10   2.0000     -10.486615      -285.3553 
  11   2.0000     -10.485765      -285.3322 
  12   2.0000     -10.458903      -284.6012 
  13   2.0000     -10.458804      -284.5985 
  14   2.0000     -10.439530      -284.0741 
  15   2.0000     -10.436270      -283.9853 
  16   2.0000     -10.377379      -282.3828 
  17   2.0000     -10.364874      -282.0426 
  18   2.0000      -1.227164       -33.3928 
  19   2.0000      -1.212287       -32.9880 
  20   2.0000      -1.198940       -32.6248 
  21   2.0000      -1.194254       -32.4973 
  22   2.0000      -1.111284       -30.2396 
  23   2.0000      -1.089585       -29.6491 
  24   2.0000      -1.070866       -29.1397 
  25   2.0000      -1.056079       -28.7374 
  26   2.0000      -0.951199       -25.8834 
  27   2.0000      -0.928552       -25.2672 
  28   2.0000      -0.863862       -23.5069 
  29   2.0000      -0.823786       -22.4163 
  30   2.0000      -0.806393       -21.9431 
  31   2.0000      -0.796828       -21.6828 
  32   2.0000      -0.792413       -21.5626 
  33   2.0000      -0.773304       -21.0427 
  34   2.0000      -0.695591       -18.9280 
  35   2.0000      -0.684662       -18.6306 
  36   2.0000      -0.676909       -18.4196 
  37   2.0000      -0.655205       -17.8290 
  38   2.0000      -0.636752       -17.3269 
  39   2.0000      -0.623753       -16.9732 
  40   2.0000      -0.622290       -16.9334 
  41   2.0000      -0.597777       -16.2663 
  42   2.0000      -0.593568       -16.1518 
  43   2.0000      -0.587374       -15.9833 
  44   2.0000      -0.567493       -15.4423 
  45   2.0000      -0.563505       -15.3338 
  46   2.0000      -0.559021       -15.2117 
  47   2.0000      -0.556009       -15.1298 
  48   2.0000      -0.552468       -15.0334 
  49   2.0000      -0.548338       -14.9210 
  50   2.0000      -0.545493       -14.8436 
  51   2.0000      -0.532742       -14.4967 
  52   2.0000      -0.518224       -14.1016 
  53   2.0000      -0.503473       -13.7002 
  54   2.0000      -0.490603       -13.3500 
  55   2.0000      -0.484564       -13.1856 
  56   2.0000      -0.476704       -12.9718 
  57   2.0000      -0.422096       -11.4858 
  58   2.0000      -0.418031       -11.3752 
  59   2.0000      -0.407335       -11.0841 
  60   2.0000      -0.402211       -10.9447 
  61   2.0000      -0.398259       -10.8372 
  62   2.0000      -0.388492       -10.5714 
  63   2.0000      -0.386578       -10.5193 
  64   2.0000      -0.365426        -9.9438 
  65   2.0000      -0.308214        -8.3869 
  66   0.0000      -0.077986        -2.1221 
  67   0.0000       0.011375         0.3095 
  68   0.0000       0.026453         0.7198 
  69   0.0000       0.032064         0.8725 
  70   0.0000       0.035441         0.9644 
  71   0.0000       0.051936         1.4133 
  72   0.0000       0.055647         1.5142 
  73   0.0000       0.057294         1.5590 
  74   0.0000       0.062143         1.6910 
  75   0.0000       0.064761         1.7622 
  76   0.0000       0.066729         1.8158 
*Only the first 10 virtual orbitals were printed.

                    ********************************
                    * MULLIKEN POPULATION ANALYSIS *
                    ********************************

-----------------------
MULLIKEN ATOMIC CHARGES
-----------------------
   0 O :   -0.615954
   1 O :   -0.647359
   2 O :   -0.630035
   3 O :   -0.644417
   4 N :   -0.108274
   5 N :   -0.144306
   6 N :   -0.057153
   7 N :    0.000386
   8 C :    0.850983
   9 C :    0.932794
  10 C :   -0.280055
  11 C :   -0.189176
  12 C :   -1.720138
  13 C :   -1.649184
  14 C :    0.348612
  15 C :    0.285987
  16 C :    0.447866
  17 C :    0.502062
  18 H :    0.472850
  19 H :    0.436910
  20 H :    0.353163
  21 H :    0.353229
  22 H :    0.403513
  23 H :    0.359918
  24 H :    0.383312
  25 H :    0.331706
  26 H :    0.072669
  27 H :    0.036363
  28 H :    0.063762
  29 H :    0.049967
Sum of atomic charges:    0.0000000

--------------------------------
MULLIKEN REDUCED ORBITAL CHARGES
--------------------------------
  0 O s       :     4.064878  s :     4.064878
      pz      :     1.503299  p :     4.515602
      px      :     1.361519
      py      :     1.650785
      dz2     :     0.005201  d :     0.033567
      dxz     :     0.006774
      dyz     :     0.005856
      dx2y2   :     0.009500
      dxy     :     0.006236
      f0      :     0.000138  f :     0.001907
      f+1     :     0.000292
      f-1     :     0.000141
      f+2     :     0.000179
      f-2     :     0.000347
      f+3     :     0.000435
      f-3     :     0.000374

  1 O s       :     4.087958  s :     4.087958
      pz      :     1.409434  p :     4.527037
      px      :     1.581789
      py      :     1.535813
      dz2     :     0.005479  d :     0.030409
      dxz     :     0.008959
      dyz     :     0.011842
      dx2y2   :     0.002738
      dxy     :     0.001391
      f0      :     0.000452  f :     0.001955
      f+1     :     0.000501
      f-1     :     0.000329
      f+2     :     0.000320
      f-2     :     0.000300
      f+3     :     0.000025
      f-3     :     0.000029

  2 O s       :     4.065379  s :     4.065379
      pz      :     1.514037  p :     4.531059
      px      :     1.710115
      py      :     1.306907
      dz2     :     0.005308  d :     0.031622
      dxz     :     0.002071
      dyz     :     0.009830
      dx2y2   :     0.008431
      dxy     :     0.005982
      f0      :     0.000139  f :     0.001975
      f+1     :     0.000030
      f-1     :     0.000468
      f+2     :     0.000357
      f-2     :     0.000243
      f+3     :     0.000359
      f-3     :     0.000379

  3 O s       :     4.074403  s :     4.074403
      pz      :     1.803179  p :     4.538096
      px      :     1.322578
      py      :     1.412340
      dz2     :     0.003756  d :     0.029979
      dxz     :     0.002508
      dyz     :    -0.000273
      dx2y2   :     0.013778
      dxy     :     0.010209
      f0      :     0.000226  f :     0.001939
      f+1     :     0.000249
      f-1     :     0.000135
      f+2     :     0.000075
      f-2     :     0.000262
      f+3     :     0.000591
      f-3     :     0.000400

  4 N s       :     3.514922  s :     3.514922
      pz      :     1.299004  p :     3.537073
      px      :     1.122429
      py      :     1.115640
      dz2     :     0.017723  d :     0.052792
      dxz     :     0.011092
      dyz     :     0.007968
      dx2y2   :     0.009430
      dxy     :     0.006579
      f0      :     0.000403  f :     0.003487
      f+1     :     0.000419
      f-1     :     0.000643
      f+2     :     0.000732
      f-2     :     0.000681
      f+3     :     0.000377
      f-3     :     0.000231

[...]
B( 11-C , 19-H ) :   0.8299 B( 12-C , 20-H ) :   0.9767 B( 12-C , 21-H ) :   1.0102 
B( 12-C , 22-H ) :   0.8971 B( 13-C , 23-H ) :   0.8342 B( 13-C , 24-H ) :   0.8424 
B( 13-C , 25-H ) :   1.0507 B( 15-C , 17-C ) :  -0.1059 

-------
TIMINGS
-------

Total SCF time: 0 days 0 hours 1 min 1 sec 

Total time                  ....      61.795 sec
Sum of individual times     ....      61.527 sec  ( 99.6%)

SCF preparation             ....       0.980 sec  (  1.6%)
Fock matrix formation       ....      57.337 sec  ( 92.8%)
  Startup                   ....       0.149 sec  (  0.3% of F)
  Split-RI-J                ....       2.460 sec  (  4.3% of F)
  Chain of spheres X        ....      47.492 sec  ( 82.8% of F)
  XC integration            ....       6.898 sec  ( 12.0% of F)
    XC Preparation          ....       0.000 sec  (  0.0% of XC)
    Basis function eval.    ....       0.424 sec  (  6.1% of XC)
    Density eval.           ....       2.529 sec  ( 36.7% of XC)
    XC-Functional eval.     ....       0.038 sec  (  0.5% of XC)
    XC-Potential eval.      ....       3.059 sec  ( 44.3% of XC)
Diagonalization             ....       0.000 sec  (  0.0%)
Density matrix formation    ....       0.354 sec  (  0.6%)
Total Energy calculation    ....       0.139 sec  (  0.2%)
Population analysis         ....       0.349 sec  (  0.6%)
Orbital Transformation      ....       0.410 sec  (  0.7%)
Orbital Orthonormalization  ....       0.000 sec  (  0.0%)
DIIS solution               ....       0.426 sec  (  0.7%)
SOSCF solution              ....       1.532 sec  (  2.5%)
Finished LeanSCF after  62.0 sec

Maximum memory used throughout the entire LEANSCF-calculation: 142.2 MB


-------------------------------------------------------------------------------
                          DFT DISPERSION CORRECTION                            
                                                                               
                              DFTD3 V3.1  Rev 1                                
                          USING Becke-Johnson damping                          
-------------------------------------------------------------------------------
The WB97M functional is recognized
Active option DFTDOPT                   ...         4   

molecular C6(AA) [au] = 9621.854630 


            DFT-D V3
 parameters
 s6 scaling factor         :     1.0000 
 a1 scaling factor         :     0.5660 
 s8 scaling factor         :     0.3908 
 a2 scaling factor         :     3.1280 
 ad hoc parameters k1-k3   :    16.0000     1.3333    -4.0000 

 Edisp/kcal,au: -37.036431409920  -0.059021304044 
 E6   /kcal   : -29.713649963 
 E8   /kcal   :  -7.322781447 
 % E8         :  19.771833215 

-------------------------   ----------------
Dispersion correction           -0.059021304
-------------------------   ----------------


-------------------------   --------------------
FINAL SINGLE POINT ENERGY      -908.791039898566
-------------------------   --------------------

                                *** OPTIMIZATION RUN DONE ***

[1738325804.541478] [ohm:667365:0]        ib_iface.c:1059 UCX  ERROR ibv_create_cq(cqe=256) failed: Connection timed out
[1738325804.542061] [ohm:667360:0]        ib_iface.c:1059 UCX  ERROR ibv_create_cq(cqe=256) failed: Connection timed out
[1738325804.542177] [ohm:667358:0]        ib_iface.c:1059 UCX  ERROR ibv_create_cq(cqe=256) failed: Connection timed out
[1738325804.542164] [ohm:667368:0]        ib_iface.c:1059 UCX  ERROR ibv_create_cq(cqe=256) failed: Connection timed out
[1738325804.542162] [ohm:667370:0]        ib_iface.c:1059 UCX  ERROR ibv_create_cq(cqe=256) failed: Connection timed out
[1738325804.542274] [ohm:667355:0]        ib_iface.c:1059 UCX  ERROR ibv_create_cq(cqe=256) failed: Connection timed out
[1738325804.542998] [ohm:667362:0]        ib_iface.c:1059 UCX  ERROR ibv_create_cq(cqe=256) failed: Connection timed out
[1738325804.564505] [ohm:667377:0]        ib_iface.c:1059 UCX  ERROR ibv_create_cq(cqe=256) failed: Connection timed out
[1738325804.564619] [ohm:667389:0]        ib_iface.c:1059 UCX  ERROR ibv_create_cq(cqe=256) failed: Connection timed out
[1738325804.565388] [ohm:667399:0]        ib_iface.c:1059 UCX  ERROR ibv_create_cq(cqe=256) failed: Connection timed out
[1738325804.565475] [ohm:667373:0]        ib_iface.c:1059 UCX  ERROR ibv_create_cq(cqe=256) failed: Connection timed out
[1738325804.576604] [ohm:667420:0]        ib_iface.c:1059 UCX  ERROR ibv_create_cq(cqe=256) failed: Connection timed out
[1738325804.583648] [ohm:667375:0]        ib_iface.c:1059 UCX  ERROR ibv_create_cq(cqe=256) failed: Connection timed out
[1738325804.583807] [ohm:667403:0]        ib_iface.c:1059 UCX  ERROR ibv_create_cq(cqe=256) failed: Connection timed out
[1738325804.596093] [ohm:667357:0]        ib_iface.c:1059 UCX  ERROR ibv_create_cq(cqe=256) failed: Connection timed out
[1738325804.598130] [ohm:667359:0]        ib_iface.c:1059 UCX  ERROR ibv_create_cq(cqe=256) failed: Connection timed out
[1738325804.603357] [ohm:667410:0]        ib_iface.c:1059 UCX  ERROR ibv_create_cq(cqe=256) failed: Connection timed out
[1738325804.604105] [ohm:667388:0]        ib_iface.c:1059 UCX  ERROR ibv_create_cq(cqe=256) failed: Connection timed out
[1738325804.604222] [ohm:667364:0]        ib_iface.c:1059 UCX  ERROR ibv_create_cq(cqe=256) failed: Connection timed out
[1738325804.604534] [ohm:667372:0]        ib_iface.c:1059 UCX  ERROR ibv_create_cq(cqe=256) failed: Connection timed out
[1738325804.604827] [ohm:667366:0]        ib_iface.c:1059 UCX  ERROR ibv_create_cq(cqe=256) failed: Connection timed out
[1738325804.607473] [ohm:667380:0]        ib_iface.c:1059 UCX  ERROR ibv_create_cq(cqe=256) failed: Connection timed out
[1738325804.607549] [ohm:667371:0]        ib_iface.c:1059 UCX  ERROR ibv_create_cq(cqe=256) failed: Connection timed out
[1738325804.608105] [ohm:667378:0]        ib_iface.c:1059 UCX  ERROR ibv_create_cq(cqe=256) failed: Connection timed out
[1738325804.608106] [ohm:667363:0]        ib_iface.c:1059 UCX  ERROR ibv_create_cq(cqe=256) failed: Connection timed out
[1738325804.608503] [ohm:667356:0]        ib_iface.c:1059 UCX  ERROR ibv_create_cq(cqe=256) failed: Connection timed out
[1738325804.608675] [ohm:667367:0]        ib_iface.c:1059 UCX  ERROR ibv_create_cq(cqe=256) failed: Connection timed out
[1738325804.608798] [ohm:667369:0]        ib_iface.c:1059 UCX  ERROR ibv_create_cq(cqe=256) failed: Connection timed out
[1738325804.609212] [ohm:667374:0]        ib_iface.c:1059 UCX  ERROR ibv_create_cq(cqe=256) failed: Connection timed out
[1738325804.609366] [ohm:667376:0]        ib_iface.c:1059 UCX  ERROR ibv_create_cq(cqe=256) failed: Connection timed out
[1738325804.609535] [ohm:667396:0]        ib_iface.c:1059 UCX  ERROR ibv_create_cq(cqe=256) failed: Connection timed out
[1738325804.609833] [ohm:667361:0]        ib_iface.c:1059 UCX  ERROR ibv_create_cq(cqe=256) failed: Connection timed out


           ************************************************************
           *        Program running with 32 parallel MPI-processes    *
           *              working on a common directory               *
           ************************************************************

------------------------------------------------------------------------------
                              ORCA PROPERTY CALCULATIONS
------------------------------------------------------------------------------

GBWName                                 ... orca.gbw
Number of atoms                         ...     30
Number of basis functions               ...    882
Max core memory                         ...   1024 MB

Electric properties:
Dipole moment                           ... YES
Quadrupole moment                       ...  NO
Static polarizability (Dipole/Dipole)   ...  NO
Static polarizability (Dipole/Quad.)    ...  NO
Static polarizability (Quad./Quad.)     ...  NO
Static polarizability (Velocity)        ...  NO

Atomic electric properties:
Dipole moment                           ...  NO
Quadrupole moment                       ...  NO
Static polarizability                   ...  NO

Choice of electric origin               ... Center of mass
Position of electric origin             ...    -0.025168    -0.068672    -0.043863

General magnetic properties:
Magnetizability                         ...  NO

EPR properties:
g-Tensor (aka g-matrix)                 ...  NO
Zero-Field splitting spin-orbit         ...  NO
Zero-field splitting spin-spin          ...  NO
Hyperfine couplings                     ...  NO (   0 nuclei)
Quadrupole couplings                    ...  NO (   0 nuclei)
Contact density                         ...  NO (   0 nuclei)

NMR properties:
Chemical shifts                         ...  NO (   0 nuclei)
Spin-rotation constants                 ...  NO (   0 nuclei)
Spin-spin couplings                     ...  NO (   0 nuclei,    0 pairs)

Choice of magnetic origin               ... GIAO
Position of magnetic origin             ...     0.000000     0.000000     0.000000

Properties with geometric perturbations:
SCF Hessian                             ...  NO
IR spectrum                             ...  NO
VCD spectrum                            ...  NO
X-ray spectroscopy properties:
SCF XES/XAS/RIXS spectra                ...  NO


-------------
DIPOLE MOMENT
-------------

Method             : SCF
Type of density    : Electron Density
Multiplicity       :   1
Irrep              :   0
Energy             :  -908.7320185945214917 Eh
Relativity type    : 
Basis              : AO
                                X                 Y                 Z
Electronic contribution:     -3.138148380     -10.252151285      -7.550834087
Nuclear contribution   :      2.614612216      11.836162500      10.310012141
                        -----------------------------------------
Total Dipole Moment    :     -0.523536163       1.584011215       2.759178054
                        -----------------------------------------
Magnitude (a.u.)       :      3.224320886
Magnitude (Debye)      :      8.195572380



--------------------
Rotational spectrum 
--------------------
 
Rotational constants in cm-1:             0.018699             0.015899             0.012588 
Rotational constants in MHz :           560.579273           476.641949           377.387392 

Dipole components along the rotational axes: 
x,y,z [a.u.] :     0.476806    -1.470409     2.829629 
x,y,z [Debye]:     1.211946    -3.737482     7.192345 

 

Dipole moment calculation done in   0.1 sec 

Maximum memory used throughout the entire PROP-calculation: 76.7 MB
[1738325805.884781] [ohm:667533:0]        ib_iface.c:1059 UCX  ERROR ibv_create_cq(cqe=256) failed: Connection timed out
[1738325805.884948] [ohm:667526:0]        ib_iface.c:1059 UCX  ERROR ibv_create_cq(cqe=256) failed: Connection timed out
[1738325805.896467] [ohm:667525:0]        ib_iface.c:1059 UCX  ERROR ibv_create_cq(cqe=256) failed: Connection timed out
[1738325805.896657] [ohm:667538:0]        ib_iface.c:1059 UCX  ERROR ibv_create_cq(cqe=256) failed: Connection timed out
[1738325805.898273] [ohm:667523:0]        ib_iface.c:1059 UCX  ERROR ibv_create_cq(cqe=256) failed: Connection timed out
[1738325805.898266] [ohm:667536:0]        ib_iface.c:1059 UCX  ERROR ibv_create_cq(cqe=256) failed: Connection timed out
[1738325805.898264] [ohm:667541:0]        ib_iface.c:1059 UCX  ERROR ibv_create_cq(cqe=256) failed: Connection timed out
[1738325805.898456] [ohm:667539:0]        ib_iface.c:1059 UCX  ERROR ibv_create_cq(cqe=256) failed: Connection timed out
[1738325805.899161] [ohm:667531:0]        ib_iface.c:1059 UCX  ERROR ibv_create_cq(cqe=256) failed: Connection timed out
[1738325805.899717] [ohm:667534:0]        ib_iface.c:1059 UCX  ERROR ibv_create_cq(cqe=256) failed: Connection timed out
[1738325805.899874] [ohm:667527:0]        ib_iface.c:1059 UCX  ERROR ibv_create_cq(cqe=256) failed: Connection timed out
[1738325805.900419] [ohm:667543:0]        ib_iface.c:1059 UCX  ERROR ibv_create_cq(cqe=256) failed: Connection timed out
[1738325805.906916] [ohm:667529:0]        ib_iface.c:1059 UCX  ERROR ibv_create_cq(cqe=256) failed: Connection timed out
[1738325805.909240] [ohm:667542:0]        ib_iface.c:1059 UCX  ERROR ibv_create_cq(cqe=256) failed: Connection timed out
[1738325805.915158] [ohm:667546:0]        ib_iface.c:1059 UCX  ERROR ibv_create_cq(cqe=256) failed: Connection timed out
[1738325805.920481] [ohm:667573:0]        ib_iface.c:1059 UCX  ERROR ibv_create_cq(cqe=256) failed: Connection timed out
[1738325805.920542] [ohm:667544:0]        ib_iface.c:1059 UCX  ERROR ibv_create_cq(cqe=256) failed: Connection timed out
[1738325805.920636] [ohm:667528:0]        ib_iface.c:1059 UCX  ERROR ibv_create_cq(cqe=256) failed: Connection timed out
[1738325805.920771] [ohm:667532:0]        ib_iface.c:1059 UCX  ERROR ibv_create_cq(cqe=256) failed: Connection timed out
[1738325805.922369] [ohm:667562:0]        ib_iface.c:1059 UCX  ERROR ibv_create_cq(cqe=256) failed: Connection timed out
[1738325805.922936] [ohm:667570:0]        ib_iface.c:1059 UCX  ERROR ibv_create_cq(cqe=256) failed: Connection timed out
[1738325805.923143] [ohm:667524:0]        ib_iface.c:1059 UCX  ERROR ibv_create_cq(cqe=256) failed: Connection timed out
[1738325805.923238] [ohm:667537:0]        ib_iface.c:1059 UCX  ERROR ibv_create_cq(cqe=256) failed: Connection timed out
[1738325805.924035] [ohm:667522:0]        ib_iface.c:1059 UCX  ERROR ibv_create_cq(cqe=256) failed: Connection timed out
[1738325805.924596] [ohm:667551:0]        ib_iface.c:1059 UCX  ERROR ibv_create_cq(cqe=256) failed: Connection timed out
[1738325805.924571] [ohm:667549:0]        ib_iface.c:1059 UCX  ERROR ibv_create_cq(cqe=256) failed: Connection timed out
[1738325805.924999] [ohm:667540:0]        ib_iface.c:1059 UCX  ERROR ibv_create_cq(cqe=256) failed: Connection timed out
[1738325805.924996] [ohm:667545:0]        ib_iface.c:1059 UCX  ERROR ibv_create_cq(cqe=256) failed: Connection timed out
[1738325805.925107] [ohm:667572:0]        ib_iface.c:1059 UCX  ERROR ibv_create_cq(cqe=256) failed: Connection timed out
[1738325805.925486] [ohm:667559:0]        ib_iface.c:1059 UCX  ERROR ibv_create_cq(cqe=256) failed: Connection timed out
[1738325805.925693] [ohm:667530:0]        ib_iface.c:1059 UCX  ERROR ibv_create_cq(cqe=256) failed: Connection timed out
[1738325805.925755] [ohm:667535:0]        ib_iface.c:1059 UCX  ERROR ibv_create_cq(cqe=256) failed: Connection timed out

--------------------------------
SUGGESTED CITATIONS FOR THIS RUN
--------------------------------

Below you find a list of papers that are relevant to this ORCA run
We neither can nor want to force you to cite these papers, but we appreciate if you do
You receive ORCA, which is the product of decades of hard work by many enthusiastic individuals, for free
The only thing we kindly ask in return is that you cite our papers,
We deeply appreciate it, if you show your appreciation for ORCA by not just citing the generic ORCA reference.

Please note that relegating all ORCA citations to the supporting information does *not* help us.
SI sections are not indexed - citations you put there will not count into any citation statistics
But we need these citations in order to attract the funding resources that allow us to do what we are doing

Therefore, if you are a happy ORCA user, please consider citing a few of the papers listed below in the main body of your paper

In addition to the list printed below, the program has created the file orca.bibtex that contains the list in bibtex format
You can import this file easily into all common literature databanks and citation aid programs


List of essential papers. We consider these as the minimum necessary citations

  1. Neese,F.
     Software update: the ORCA program system, version 5.0
     WIRES Comput. Molec. Sci., 2022 12(1)e1606
     doi.org/10.1002/wcms.1606

List of papers to cite with high priority. The work reported in these papers was absolutely
necessary for this run to complete.
Our perspective: the developers of density functionals and basis sets usually get cited in chemistry papers
Good! But without the algorithms to do something with them, the functionals or basis sets would not do anything.
Hence, in our opinion, the algorithm design and method developments papers are equally worthy of getting cited

  1. Neese,F.
     An improvement of the resolution of the identity approximation for the formation of the Coulomb matrix
     J. Comp. Chem., 2003 24(14)1740-1747
     doi.org/10.1002/jcc.10318
  2. Neese,F.; Wennmohs,F.; Hansen,A.; Becker,U.
     Efficient, approximate and parallel Hartree-Fock and hybrid DFT calculations. A 'chain-of-spheres' algorithm for the Hartree-Fock exchange
     Chem. Phys., 2009 356(1-3)98-109
     doi.org/10.1016/j.chemphys.2008.10.036
  3. Helmich-Paris,B.; de Souza,B.; Neese,F.; Izsák,R.
     An improved chain of spheres for exchange algorithm
     J. Chem. Phys., 2021 155 104109
     doi.org/doi: 10.1063/5.0058766.
  4. Neese,F.
     The SHARK Integral Generation and Digestion System
     J. Comp. Chem., 2022  1-16
     doi.org/10.1002/jcc.26942
  5. Lehtola,S.; Steigemann,C.; Oliveira,M.; Marques,M.
     Recent developments in Libxc - A comprehensive library of functionals for density functional theory
     Software X, 2018 7 
     doi.org/10.1016/j.softx.2017.11.002
  6. Grimme,S.; Antony,J.; Ehrlich,S.; Krieg,H.
     A consistent and accurate ab initio parametrization of density functional dispersion correction (DFT-D) for the 94 elements H-Pu
     J. Chem. Phys., 2010 132 154104-XXXX
     doi.org/10.1063/1.3382344
  7. Grimme,S.; Ehrlich,S.; Goerigk,L.
     Effect of the damping function in dispersion corrected density functional theory
     J. Comput. Chem., 2011 32(7)1456-1465
     doi.org/10.1002/jcc.21759

List of suggested additional citations. These are papers that are important in the 'surrounding' of 
of this run, or papers that preceded the highly important papers. If you like your results we are grateful for a citation.

  1. Izsak,R.; Neese,F.
     An overlap fitted chain of spheres exchange method
     J. Chem. Phys., 2011 135 144105
     doi.org/10.1063/1.3646921
  2. Izsak,R.; Hansen,A.; Neese,F.
     The resolution of identity and chain of spheres approximations for the LPNO-CCSD singles Fock term
     Molec. Phys., 2012 110 2413-2417
     doi.org/10.1080/00268976.2012.687466
  3. Neese,F.
     The ORCA program system
     WIRES Comput. Molec. Sci., 2012 2(1)73-78
     doi.org/10.1002/wcms.81
  4. Izsak,R.; Neese,F.; Klopper,W.
     Robust fitting techniques in the chain of spheres approximation to the Fock exchange: The role of the complementary space
     J. Chem. Phys., 2013 139 
     doi.org/10.1063/1.4819264
  5. Neese,F.
     Software update: the ORCA program system, version 4.0
     WIRES Comput. Molec. Sci., 2018 8(1)1-6
     doi.org/10.1002/wcms.1327
  6. Neese,F.; Wennmohs,F.; Becker,U.; Riplinger,C.
     The ORCA quantum chemistry program package
     J. Chem. Phys., 2020 152 Art. No. L224108
     doi.org/10.1063/5.0004608

List of optional additional citations

  1. Neese,F.
     Approximate second-order SCF convergence for spin unrestricted wavefunctions
     Chem. Phys. Lett., 2000 325(1-3)93-98
     doi.org/10.1016/s0009-2614(00)00662-x

Timings for individual modules:

Sum of individual times          ...     3227.178 sec (=  53.786 min)
Startup calculation              ...       96.280 sec (=   1.605 min)   3.0 %
SCF iterations                   ...     2228.756 sec (=  37.146 min)  69.1 %
Property calculations            ...        1.372 sec (=   0.023 min)   0.0 %
SCF Gradient evaluation          ...      900.448 sec (=  15.007 min)  27.9 %
Geometry relaxation              ...        0.322 sec (=   0.005 min)   0.0 %
                             ****ORCA TERMINATED NORMALLY****
TOTAL RUN TIME: 0 days 0 hours 54 minutes 7 seconds 283 msec
