7
Properties=species:S:1:pos:R:3:momenta:R:3:forces:R:3 Coordinates=T from=T ORCA-job=T orca=T E=T -153.930674962412=T energy=-4184.082990210935 free_energy=-4184.082990210935 stress="2.484852249432786e-06 3.1834683099774343e-06 -4.3841234006440043e-07 3.1834683099774343e-06 1.5529955450803165e-05 4.9962309590704146e-06 -4.3841234006440043e-07 4.9962309590704146e-06 6.223957338850754e-06" pbc="F F F"
O        0.74282463       1.41351389       0.13753148       0.02185858      -2.46219645      -0.34959606      -0.01649837      -2.15031789      -0.77980635
C        0.63541803       0.10568304      -0.30021618       0.04445101       1.60011698       0.51793304      -0.65850780       0.36946988       0.33156874
C       -0.55760704      -0.81269996       0.19716595       0.05298739       0.83557535      -0.12750887       1.64808332       0.78205630      -0.78294884
H       -0.15407155      -1.61180988       0.82895946      -0.05468098       0.21839790       0.10698562      -0.17958974       0.07534501      -0.12447002
H        1.27550015      -0.30562792      -1.09831736       0.17850901      -0.00414414       0.17574018      -0.12060095       0.80064720       0.61263130
H       -1.01483123      -1.24811619      -0.71528790      -0.04750305      -0.02162255      -0.18441855      -0.09723346       0.27862413       0.78568459
H       -1.19065391      -0.17093858       0.78425697      -0.19562196      -0.16612710      -0.13913536      -0.57565300      -0.15582463      -0.04265941
