
                                 *****************
                                 * O   R   C   A *
                                 *****************

                                            #,                                       
                                            ###                                      
                                            ####                                     
                                            #####                                    
                                            ######                                   
                                           ########,                                 
                                     ,,################,,,,,                         
                               ,,#################################,,                 
                          ,,##########################################,,             
                       ,#########################################, ''#####,          
                    ,#############################################,,   '####,        
                  ,##################################################,,,,####,       
                ,###########''''           ''''###############################       
              ,#####''   ,,,,##########,,,,          '''####'''          '####       
            ,##' ,,,,###########################,,,                        '##       
           ' ,,###''''                  '''############,,,                           
         ,,##''                                '''############,,,,        ,,,,,,###''
      ,#''                                            '''#######################'''  
     '                                                          ''''####''''         
             ,#######,   #######,   ,#######,      ##                                
            ,#'     '#,  ##    ##  ,#'     '#,    #''#        ,####,   ,####,        
            ##       ##  ##   ,#'  ##            #'  '#       #'       #'  '#        
            ##       ##  #######   ##           ,######,      #####,   #    #        
            '#,     ,#'  ##    ##  '#,     ,#' ,#      #,     #,   #   #,  ,#        
             '#######'   ##     ##  '#######'  #'      '#     '####' # '####'        



                #########################################################
                #                        -***-                          #
                #          Department of theory and spectroscopy        #
                #                                                       #
                #                      Frank Neese                      #
                #                                                       #
                #     Directorship, Architecture, Infrastructure        #
                #                    SHARK, DRIVERS                     #
                #        Core code/Algorithms in most modules           #
                #                                                       #
                #        Max Planck Institute fuer Kohlenforschung      #
                #                Kaiser Wilhelm Platz 1                 #
                #                 D-45470 Muelheim/Ruhr                 #
                #                      Germany                          #
                #                                                       #
                #                  All rights reserved                  #
                #                        -***-                          #
                #########################################################


                         Program Version 6.0.0  -   RELEASE  -


 With contributions from (in alphabetic order):
   Daniel Aravena         : Magnetic Suceptibility
   Michael Atanasov       : Ab Initio Ligand Field Theory (pilot matlab implementation)
   Alexander A. Auer      : GIAO ZORA, VPT2 properties, NMR spectrum
   Ute Becker             : All parallelization in ORCA, NUMFREQ, NUMCALC
   Giovanni Bistoni       : ED, misc. LED, open-shell LED, HFLD
   Martin Brehm           : Molecular dynamics
   Dmytro Bykov           : pre 5.0 version of the SCF Hessian
   Marcos Casanova-Páez   : Triplet and SCS-CIS(D). UHF-(DLPNO)-IP/EA/STEOM-CCSD. UHF-CVS-IP/STEOM-CCSD
   Vijay G. Chilkuri      : MRCI spin determinant printing, contributions to CSF-ICE
   Pauline Colinet        : FMM embedding
   Dipayan Datta          : RHF DLPNO-CCSD density
   Achintya Kumar Dutta   : EOM-CC, STEOM-CC
   Nicolas Foglia         : Exact transition moments, OPA infrastructure, MCD improvements
   Dmitry Ganyushin       : Spin-Orbit,Spin-Spin,Magnetic field MRCI
   Miquel Garcia          : C-PCM and meta-GGA Hessian, CCSD/C-PCM, Gaussian charge scheme
   Tiago L. C. Gouveia    : GS-ROHF, GS-ROCIS
   Yang Guo               : DLPNO-NEVPT2, F12-NEVPT2, CIM, IAO-localization
   Andreas Hansen         : Spin unrestricted coupled pair/coupled cluster methods
   Ingolf Harden          : AUTO-CI MPn and infrastructure 
   Benjamin Helmich-Paris : MC-RPA, TRAH-(SCF,CASSCF), AVAS, COSX integrals, SCF dyn. polar.
   Lee Huntington         : MR-EOM, pCC
   Robert Izsak           : Overlap fitted RIJCOSX, COSX-SCS-MP3, EOM
   Riya Kayal             : Wick's Theorem for AUTO-CI, AUTO-CI UHF-CCSDT
   Emily Kempfer          : AUTO-CI, RHF CISDT and CCSDT
   Christian Kollmar      : KDIIS, OOCD, Brueckner-CCSD(T), CCSD density, CASPT2, CASPT2-K, improved NEVPT2
   Axel Koslowski         : Symmetry handling
   Simone Kossmann        : Meta GGA functionals, TD-DFT gradient, OOMP2, (MP2 Hessian; deprecated post 5.0)
   Lucas Lang             : DCDCAS
   Marvin Lechner         : AUTO-CI (C++ implementation), FIC-MRCC
   Spencer Leger          : CASSCF response
   Dagmar Lenk            : GEPOL surface, SMD, ORCA-2-JSON
   Dimitrios Liakos       : Extrapolation schemes; Compound Job, initial MDCI parallelization
   Dimitrios Manganas     : Further ROCIS development; embedding schemes. LFT, Crystal Embedding
   Dimitrios Pantazis     : SARC Basis sets
   Anastasios Papadopoulos: AUTO-CI, single reference methods and gradients
   Taras Petrenko         : pre 6.0 DFT Hessian and TD-DFT gradient, (ASA, deprecated), ECA, 1-Electron XAS/XES, NRVS
   Peter Pinski           : DLPNO-MP2, DLPNO-MP2 Gradient
   Christoph Reimann      : Effective Core Potentials
   Marius Retegan         : Local ZFS, SOC
   Christoph Riplinger    : Optimizer, TS searches, QM/MM, DLPNO-CCSD(T), (RO)-DLPNO pert. Triples
   Michael Roemelt        : Original ROCIS implementation
   Masaaki Saitow         : Open-shell DLPNO-CCSD energy and density
   Barbara Sandhoefer     : DKH picture change effects
   Kantharuban Sivalingam : CASSCF convergence/infrastructure, NEVPT2 and variants, FIC-MRCI
   Bernardo de Souza      : ESD, SOC TD-DFT
   Georgi Stoychev        : AutoAux, RI-MP2 NMR, DLPNO-MP2 response, X2C
   Van Anh Tran           : RI-MP2 g-tensors
   Willem Van den Heuvel  : Paramagnetic NMR
   Zikuan Wang            : NOTCH, Electric field optimization 
   Frank Wennmohs         : Technical directorship and infrastructure
   Hang Xu                : AUTO-CI-Response properties 


 We gratefully acknowledge several colleagues who have allowed us to
 interface, adapt or use parts of their codes:
   Stefan Grimme, W. Hujo, H. Kruse, P. Pracht,  : VdW corrections, initial TS optimization,
                  C. Bannwarth, S. Ehlert,         DFT functionals, gCP, sTDA/sTD-DF
                  L. Wittmann, M. Mueller
   Ed Valeev, F. Pavosevic, A. Kumar             : LibInt (2-el integral package), F12 methods
   Garnet Chan, S. Sharma, J. Yang, R. Olivares  : DMRG
   Ulf Ekstrom                                   : XCFun DFT Library
   Mihaly Kallay                                 : mrcc  (arbitrary order and MRCC methods)
   Frank Weinhold                                : gennbo (NPA and NBO analysis)
   Simon Mueller                                 : openCOSMO-RS
   Christopher J. Cramer and Donald G. Truhlar   : smd solvation model
   Lars Goerigk                                  : TD-DFT with DH, B97 family of functionals
   V. Asgeirsson, H. Jonsson                     : NEB implementation
   FAccTs GmbH                                   : IRC, NEB, NEB-TS, DLPNO-Multilevel, CI-OPT
                                                   MM, QMMM, 2- and 3-layer-ONIOM, Crystal-QMMM,
                                                   LR-CPCM, SF, NACMEs, symmetry and pop. for TD-DFT,
                                                   nearIR, NL-DFT gradient (VV10), updates on ESD,
                                                   ML-optimized integration grids, MBIS, APM,
                                                   GOAT, DOCKER, SOLVATOR, interface openCOSMO-RS
   S Lehtola, MJT Oliveira, MAL Marques          : LibXC Library
   Liviu Ungur et al                             : ANISO software


 Your calculation uses the libint2 library for the computation of 2-el integrals
 For citations please refer to: http://libint.valeyev.net

 Your ORCA version has been built with support for libXC version: 6.2.2
 For citations please refer to: https://libxc.gitlab.io

 This ORCA versions uses:
   CBLAS   interface :  Fast vector & matrix operations
   LAPACKE interface :  Fast linear algebra routines
   SCALAPACK package :  Parallel linear algebra routines
   Shared memory     :  Shared parallel matrices
   BLAS/LAPACK       :  OpenBLAS 0.3.27  USE64BITINT DYNAMIC_ARCH NO_AFFINITY Zen SINGLE_THREADED
        Core in use  :  Zen
   Copyright (c) 2011-2014, The OpenBLAS Project


Your calculation utilizes the atom-pairwise dispersion correction
with the Becke-Johnson damping scheme (D3BJ)


Warning: RI is on but no J-basis has been assigned. Assigning Def2/J (nothing to worry about!)
================================================================================

----- Orbital basis set information -----
Your calculation utilizes the basis: def2-TZVPPD
   F. Weigend and R. Ahlrichs, Phys. Chem. Chem. Phys. 7, 3297 (2005).
   D. Rappoport and F. Furche, J. Chem. Phys. 133, 134105 (2010)
   D. Rappoport, J. Chem. Phys. 155, 124102 (2021).

----- AuxJ basis set information -----
Your calculation utilizes the auxiliary basis: def2/J
   F. Weigend, Phys. Chem. Chem. Phys. 8, 1057 (2006).

================================================================================
                                        WARNINGS
                       Please study these warnings very carefully!
================================================================================

Using LibXC functional ID 531 : wB97M-V exchange-correlation functional
[ 1]  N. Mardirossian and M. Head-Gordon.,  J. Chem. Phys. 144, 214110 (2016)
Using LibXC functional ID 531 : wB97M-V exchange-correlation functional
[ 1]  N. Mardirossian and M. Head-Gordon.,  J. Chem. Phys. 144, 214110 (2016)

WARNING: B97M-V or wB97M-V functional requested.
  ===> : libXC variant has now been activated.
         Any manually given DFX/HFX/RangeSep scaling parameters are IGNORED!

Your calculation utilizes LibXC
 by S Lehtola, C Steigemann, MJT Oliveira & MAL Marques
Please cite in your paper:
 S Lehtola, C Steigemann, MJT Oliveira & MAL Marques, SoftwareX, 7, (2018), 1.
   


WARNING: Geometry Optimization
  ===> : Switching off AutoStart
         For restart on a previous wavefunction, please use MOREAD

================================================================================
                                       INPUT FILE
================================================================================
NAME = orca.inp
|  1> ! Opt wB97M-D3BJ def2-TZVPPD 
|  2> %pal nprocs 8 end %pal nprocs 64 end 
|  3> %geom
|  4> Constraints
|  5>     {A 2 1 0 138.1818181818182 C }
|  6> end
|  7> MaxIter 500
|  8> end 
|  9> *xyz 0 1 
| 10> O   -0.0007 0.8141 0.0
| 11> C   0.7509 -0.4065 0.0
| 12> C   -0.7502 -0.4076 0.0
| 13> H   1.2625 -0.6786 0.9136
| 14> H   1.2625 -0.6787 -0.9136
| 15> H   -1.2614 -0.6806 -0.9136
| 16> H   -1.2614 -0.6805 0.9136
| 17> *
| 18> 
| 19>                          ****END OF INPUT****
================================================================================

                       *****************************
                       * Geometry Optimization Run *
                       *****************************

Geometry optimization settings:
Update method            Update   .... BFGS
Choice of coordinates    CoordSys .... (2022) Redundant Internals
Initial Hessian          InHess   .... Almloef's Model
Max. no of cycles        MaxIter  .... 500

Convergence Tolerances:
Energy Change            TolE     ....  5.0000e-06 Eh
Max. Gradient            TolMAXG  ....  3.0000e-04 Eh/bohr
RMS Gradient             TolRMSG  ....  1.0000e-04 Eh/bohr
Max. Displacement        TolMAXD  ....  4.0000e-03 bohr
RMS Displacement         TolRMSD  ....  2.0000e-03 bohr
Strict Convergence                .... False

------------------------------------------------------------------------------
                        ORCA OPTIMIZATION COORDINATE SETUP
------------------------------------------------------------------------------

The optimization will be done in redundant internal coordinates (2022)
Making redundant internal coordinates   ...  (2022 redundants) done
Evaluating the initial hessian          ...  (Almloef) done
Evaluating the coordinates              ...  done
Calculating the B-matrix                .... done
Calculating the G-matrix                .... done
Diagonalizing the G-matrix              .... done
The first mode is                       ....   15
The number of degrees of freedom        ....   15
Storing new coordinates                 .... done

    -----------------------------------------------------------------
                    Redundant Internal Coordinates


    -----------------------------------------------------------------
         Definition                    Initial Value    Approx d2E/dq
    -----------------------------------------------------------------
      1. B(C   1,O   0)                  1.6100         0.477046   
      2. B(C   2,O   0)                  2.4826         0.477331   
      3. B(C   2,C   1)                  1.0387         0.415418   
      4. B(H   3,C   1)                  1.0887         0.371020   
      5. B(H   4,C   1)                  1.0859         0.370986   
      6. B(H   5,C   2)                  1.0841         0.370969   
      7. B(H   6,C   2)                  1.0820         0.371003   
      8. A(C   1,O   0,C   2)           16.1980         0.390478   
      9. A(O   0,C   1,H   3)           98.5958         0.337335   
     10. A(O   0,C   1,H   4)           95.8376         0.337330   
     11. A(C   2,C   1,H   4)          103.6107         0.331672   
     12. A(C   2,C   1,H   3)          102.7305         0.331677   
     13. A(O   0,C   1,C   2)          138.1818         0.383570 C 
     14. A(H   3,C   1,H   4)          120.2223         0.293583   
     15. A(O   0,C   2,H   5)          122.6066         0.337361   
     16. A(H   5,C   2,H   6)          113.2835         0.293579   
     17. A(C   1,C   2,H   5)          123.8602         0.331670   
     18. A(O   0,C   2,H   6)          120.3246         0.337366   
     19. A(O   0,C   2,C   1)           25.6203         0.383609   
     20. A(C   1,C   2,H   6)          122.2462         0.331675   
     21. D(H   3,C   1,O   0,C   2)   -120.2124         0.017948   
     22. D(H   4,C   1,O   0,C   2)    117.9723         0.017948   
     23. D(H   5,C   2,O   0,C   1)   -101.2854         0.017970   
     24. D(O   0,C   2,C   1,H   4)   -115.3136         0.013661   
     25. D(H   5,C   2,C   1,O   0)     95.8311         0.013661   
     26. D(H   5,C   2,C   1,H   4)    -19.4826         0.013661   
     27. D(H   6,C   2,C   1,O   0)    -93.7314         0.013661   
     28. D(H   5,C   2,C   1,H   3)   -145.3317         0.013661   
     29. D(H   6,C   2,O   0,C   1)    102.1098         0.017970   
     30. D(O   0,C   2,C   1,H   3)    118.8373         0.013661   
    -----------------------------------------------------------------

Number of atoms                         .... 7
Number of degrees of freedom            .... 30


         *************************************************************
         *                GEOMETRY OPTIMIZATION CYCLE   1            *
         *************************************************************
---------------------------------
CARTESIAN COORDINATES (ANGSTROEM)
---------------------------------
  O      0.973356    1.251205    0.000062
  C      0.335195   -0.226922    0.002999
  C     -0.607417   -0.663114   -0.003054
  H      0.759449   -0.585462    0.939309
  H      0.765325   -0.534806   -0.945322
  H     -1.108983   -1.005117   -0.901279
  H     -1.114726   -0.954185    0.907285

----------------------------
CARTESIAN COORDINATES (A.U.)
----------------------------
  NO LB      ZA    FRAG     MASS         X           Y           Z
   0 O     8.0000    0    15.999    1.839376    2.364435    0.000116
   1 C     6.0000    0    12.011    0.633426   -0.428820    0.005667
   2 C     6.0000    0    12.011   -1.147851   -1.253103   -0.005770
   3 H     1.0000    0     1.008    1.435151   -1.106363    1.775038
   4 H     1.0000    0     1.008    1.446255   -1.010636   -1.786400
   5 H     1.0000    0     1.008   -2.095673   -1.899396   -1.703171
   6 H     1.0000    0     1.008   -2.106527   -1.803148    1.714520

--------------------------------
INTERNAL COORDINATES (ANGSTROEM)
--------------------------------
 O      0   0   0     0.000000000000     0.00000000     0.00000000
 C      1   0   0     1.433445820392     0.00000000     0.00000000
 C      1   2   0     1.433283342539    63.15188811     0.00000000
 H      2   1   3     1.081867796914   117.52351901   252.22049620
 H      2   1   3     1.081892952191   117.52790995   107.77652205
 H      3   1   2     1.081905448734   117.52689270   252.21976060
 H      3   1   2     1.081880219803   117.52249871   107.78321303

---------------------------
INTERNAL COORDINATES (A.U.)
---------------------------
 O      0   0   0     0.000000000000     0.00000000     0.00000000
 C      1   0   0     2.708820028355     0.00000000     0.00000000
 C      1   2   0     2.708512989710    63.15188811     0.00000000
 H      2   1   3     2.044433849277   117.52351901   252.22049620
 H      2   1   3     2.044481385860   117.52790995   107.77652205
 H      3   1   2     2.044505000904   117.52689270   252.21976060
 H      3   1   2     2.044457325133   117.52249871   107.78321303

---------------------
BASIS SET INFORMATION
---------------------
There are 3 groups of distinct atoms

 Group   1 Type O   : 12s7p3d1f contracted to 6s4p3d1f pattern {621111/4111/111/1}
 Group   2 Type C   : 12s6p3d1f contracted to 6s3p3d1f pattern {621111/411/111/1}
 Group   3 Type H   : 5s3p1d contracted to 3s3p1d pattern {311/111/1}

Atom   0O    basis set group =>   1
Atom   1C    basis set group =>   2
Atom   2C    basis set group =>   2
Atom   3H    basis set group =>   3
Atom   4H    basis set group =>   3
Atom   5H    basis set group =>   3
Atom   6H    basis set group =>   3
---------------------------------
AUXILIARY/J BASIS SET INFORMATION
---------------------------------
There are 3 groups of distinct atoms

 Group   1 Type O   : 12s5p4d2f1g contracted to 6s4p3d1f1g pattern {711111/2111/211/2/1}
 Group   2 Type C   : 12s5p4d2f1g contracted to 6s4p3d1f1g pattern {711111/2111/211/2/1}
 Group   3 Type H   : 5s2p1d contracted to 3s1p1d pattern {311/2/1}

Atom   0O    basis set group =>   1
Atom   1C    basis set group =>   2
Atom   2C    basis set group =>   2
Atom   3H    basis set group =>   3
Atom   4H    basis set group =>   3
Atom   5H    basis set group =>   3
Atom   6H    basis set group =>   3
[1740983484.010369] [ohm:2818786:0]        ib_iface.c:1059 UCX  ERROR ibv_create_cq(cqe=256) failed: Connection timed out
[1740983484.016765] [ohm:2818788:0]        ib_iface.c:1059 UCX  ERROR ibv_create_cq(cqe=256) failed: Connection timed out
[1740983484.025472] [ohm:2818783:0]        ib_iface.c:1059 UCX  ERROR ibv_create_cq(cqe=256) failed: Connection timed out
[1740983484.027180] [ohm:2818782:0]        ib_iface.c:1059 UCX  ERROR ibv_create_cq(cqe=256) failed: Connection timed out
[1740983484.082385] [ohm:2818787:0]        ib_iface.c:1059 UCX  ERROR ibv_create_cq(cqe=256) failed: Connection timed out
[1740983484.082709] [ohm:2818784:0]        ib_iface.c:1059 UCX  ERROR ibv_create_cq(cqe=256) failed: Connection timed out
[1740983484.086509] [ohm:2818790:0]        ib_iface.c:1059 UCX  ERROR ibv_create_cq(cqe=256) failed: Connection timed out
[1740983484.089282] [ohm:2818809:0]        ib_iface.c:1059 UCX  ERROR ibv_create_cq(cqe=256) failed: Connection timed out
[1740983484.091617] [ohm:2818794:0]        ib_iface.c:1059 UCX  ERROR ibv_create_cq(cqe=256) failed: Connection timed out
[1740983484.096288] [ohm:2818785:0]        ib_iface.c:1059 UCX  ERROR ibv_create_cq(cqe=256) failed: Connection timed out
[1740983484.097126] [ohm:2818862:0]        ib_iface.c:1059 UCX  ERROR ibv_create_cq(cqe=256) failed: Connection timed out
[1740983484.123315] [ohm:2818864:0]        ib_iface.c:1059 UCX  ERROR ibv_create_cq(cqe=256) failed: Connection timed out
[1740983484.130030] [ohm:2818793:0]        ib_iface.c:1059 UCX  ERROR ibv_create_cq(cqe=256) failed: Connection timed out
[1740983484.130884] [ohm:2818822:0]        ib_iface.c:1059 UCX  ERROR ibv_create_cq(cqe=256) failed: Connection timed out
[1740983484.141504] [ohm:2818808:0]        ib_iface.c:1059 UCX  ERROR ibv_create_cq(cqe=256) failed: Connection timed out
[1740983484.148006] [ohm:2818893:0]        ib_iface.c:1059 UCX  ERROR ibv_create_cq(cqe=256) failed: Connection timed out
[1740983484.213822] [ohm:2818847:0]        ib_iface.c:1059 UCX  ERROR ibv_create_cq(cqe=256) failed: Connection timed out
[1740983484.213969] [ohm:2818917:0]        ib_iface.c:1059 UCX  ERROR ibv_create_cq(cqe=256) failed: Connection timed out
[1740983484.245576] [ohm:2818881:0]        ib_iface.c:1059 UCX  ERROR ibv_create_cq(cqe=256) failed: Connection timed out
[1740983484.247387] [ohm:2818815:0]        ib_iface.c:1059 UCX  ERROR ibv_create_cq(cqe=256) failed: Connection timed out
[1740983484.254184] [ohm:2818842:0]        ib_iface.c:1059 UCX  ERROR ibv_create_cq(cqe=256) failed: Connection timed out
[1740983484.267344] [ohm:2818840:0]        ib_iface.c:1059 UCX  ERROR ibv_create_cq(cqe=256) failed: Connection timed out
[1740983484.272431] [ohm:2818920:0]        ib_iface.c:1059 UCX  ERROR ibv_create_cq(cqe=256) failed: Connection timed out
[1740983484.275898] [ohm:2818838:0]        ib_iface.c:1059 UCX  ERROR ibv_create_cq(cqe=256) failed: Connection timed out
[1740983484.277290] [ohm:2818828:0]        ib_iface.c:1059 UCX  ERROR ibv_create_cq(cqe=256) failed: Connection timed out
[1740983484.285943] [ohm:2818810:0]        ib_iface.c:1059 UCX  ERROR ibv_create_cq(cqe=256) failed: Connection timed out
[1740983484.290309] [ohm:2818889:0]        ib_iface.c:1059 UCX  ERROR ibv_create_cq(cqe=256) failed: Connection timed out
[1740983484.292481] [ohm:2818891:0]        ib_iface.c:1059 UCX  ERROR ibv_create_cq(cqe=256) failed: Connection timed out
[1740983484.294008] [ohm:2818900:0]        ib_iface.c:1059 UCX  ERROR ibv_create_cq(cqe=256) failed: Connection timed out
[1740983484.299070] [ohm:2818813:0]        ib_iface.c:1059 UCX  ERROR ibv_create_cq(cqe=256) failed: Connection timed out
[1740983484.301555] [ohm:2818814:0]        ib_iface.c:1059 UCX  ERROR ibv_create_cq(cqe=256) failed: Connection timed out
[1740983484.302625] [ohm:2818931:0]        ib_iface.c:1059 UCX  ERROR ibv_create_cq(cqe=256) failed: Connection timed out
[1740983484.310740] [ohm:2818841:0]        ib_iface.c:1059 UCX  ERROR ibv_create_cq(cqe=256) failed: Connection timed out
[1740983484.325198] [ohm:2818811:0]        ib_iface.c:1059 UCX  ERROR ibv_create_cq(cqe=256) failed: Connection timed out
[1740983484.326821] [ohm:2818857:0]        ib_iface.c:1059 UCX  ERROR ibv_create_cq(cqe=256) failed: Connection timed out
[1740983484.329321] [ohm:2818833:0]        ib_iface.c:1059 UCX  ERROR ibv_create_cq(cqe=256) failed: Connection timed out
[1740983484.331677] [ohm:2818837:0]        ib_iface.c:1059 UCX  ERROR ibv_create_cq(cqe=256) failed: Connection timed out
[1740983484.334553] [ohm:2818846:0]        ib_iface.c:1059 UCX  ERROR ibv_create_cq(cqe=256) failed: Connection timed out
[1740983484.335209] [ohm:2818820:0]        ib_iface.c:1059 UCX  ERROR ibv_create_cq(cqe=256) failed: Connection timed out
[1740983484.338264] [ohm:2818836:0]        ib_iface.c:1059 UCX  ERROR ibv_create_cq(cqe=256) failed: Connection timed out
[1740983484.345654] [ohm:2818873:0]        ib_iface.c:1059 UCX  ERROR ibv_create_cq(cqe=256) failed: Connection timed out
[1740983484.347902] [ohm:2818834:0]        ib_iface.c:1059 UCX  ERROR ibv_create_cq(cqe=256) failed: Connection timed out
[1740983484.348813] [ohm:2818905:0]        ib_iface.c:1059 UCX  ERROR ibv_create_cq(cqe=256) failed: Connection timed out
[1740983484.350404] [ohm:2818860:0]        ib_iface.c:1059 UCX  ERROR ibv_create_cq(cqe=256) failed: Connection timed out
[1740983484.354884] [ohm:2818869:0]        ib_iface.c:1059 UCX  ERROR ibv_create_cq(cqe=256) failed: Connection timed out
[1740983484.369855] [ohm:2818918:0]        ib_iface.c:1059 UCX  ERROR ibv_create_cq(cqe=256) failed: Connection timed out
[1740983484.374177] [ohm:2818926:0]        ib_iface.c:1059 UCX  ERROR ibv_create_cq(cqe=256) failed: Connection timed out
[1740983484.375428] [ohm:2818830:0]        ib_iface.c:1059 UCX  ERROR ibv_create_cq(cqe=256) failed: Connection timed out
[1740983484.376961] [ohm:2818871:0]        ib_iface.c:1059 UCX  ERROR ibv_create_cq(cqe=256) failed: Connection timed out
[1740983484.381630] [ohm:2818791:0]        ib_iface.c:1059 UCX  ERROR ibv_create_cq(cqe=256) failed: Connection timed out
[1740983484.385250] [ohm:2818854:0]        ib_iface.c:1059 UCX  ERROR ibv_create_cq(cqe=256) failed: Connection timed out
[1740983484.386280] [ohm:2818907:0]        ib_iface.c:1059 UCX  ERROR ibv_create_cq(cqe=256) failed: Connection timed out
[1740983484.387509] [ohm:2818792:0]        ib_iface.c:1059 UCX  ERROR ibv_create_cq(cqe=256) failed: Connection timed out
[1740983484.388539] [ohm:2818886:0]        ib_iface.c:1059 UCX  ERROR ibv_create_cq(cqe=256) failed: Connection timed out
[1740983484.391221] [ohm:2818843:0]        ib_iface.c:1059 UCX  ERROR ibv_create_cq(cqe=256) failed: Connection timed out
[1740983484.391471] [ohm:2818913:0]        ib_iface.c:1059 UCX  ERROR ibv_create_cq(cqe=256) failed: Connection timed out
[1740983484.397966] [ohm:2818839:0]        ib_iface.c:1059 UCX  ERROR ibv_create_cq(cqe=256) failed: Connection timed out
[1740983484.398214] [ohm:2818789:0]        ib_iface.c:1059 UCX  ERROR ibv_create_cq(cqe=256) failed: Connection timed out
[1740983484.398610] [ohm:2818912:0]        ib_iface.c:1059 UCX  ERROR ibv_create_cq(cqe=256) failed: Connection timed out
[1740983484.398969] [ohm:2818899:0]        ib_iface.c:1059 UCX  ERROR ibv_create_cq(cqe=256) failed: Connection timed out
[1740983484.402350] [ohm:2818878:0]        ib_iface.c:1059 UCX  ERROR ibv_create_cq(cqe=256) failed: Connection timed out
[1740983484.402565] [ohm:2818807:0]        ib_iface.c:1059 UCX  ERROR ibv_create_cq(cqe=256) failed: Connection timed out
[1740983484.402653] [ohm:2818812:0]        ib_iface.c:1059 UCX  ERROR ibv_create_cq(cqe=256) failed: Connection timed out
[1740983484.403050] [ohm:2818853:0]        ib_iface.c:1059 UCX  ERROR ibv_create_cq(cqe=256) failed: Connection timed out


           ************************************************************
           *        Program running with 64 parallel MPI-processes    *
           *              working on a common directory               *
           ************************************************************
------------------------------------------------------------------------------
                             ORCA STARTUP CALCULATIONS
                           -- RI-GTO INTEGRALS CHOSEN --
------------------------------------------------------------------------------
------------------------------------------------------------------------------
                   ___                                                        
                  /   \      - P O W E R E D   B Y -                         
                 /     \                                                     
                 |  |  |   _    _      __       _____    __    __             
                 |  |  |  | |  | |    /  \     |  _  \  |  |  /  |          
                  \  \/   | |  | |   /    \    | | | |  |  | /  /          
                 / \  \   | |__| |  /  /\  \   | |_| |  |  |/  /          
                |  |  |   |  __  | /  /__\  \  |    /   |      \           
                |  |  |   | |  | | |   __   |  |    \   |  |\   \          
                \     /   | |  | | |  |  |  |  | |\  \  |  | \   \       
                 \___/    |_|  |_| |__|  |__|  |_| \__\ |__|  \__/        
                                                                              
                      - O R C A' S   B I G   F R I E N D -                    
                                      &                                       
                       - I N T E G R A L  F E E D E R -                       
                                                                              
 v1 FN, 2020, v2 2021, v3 2022-2024                                           
------------------------------------------------------------------------------


----------------------
SHARK INTEGRAL PACKAGE
----------------------

Number of atoms                             ...      7
Number of basis functions                   ...    182
Number of shells                            ...     68
Maximum angular momentum                    ...      3
Integral batch strategy                     ... SHARK/LIBINT Hybrid
RI-J (if used) integral strategy            ... SPLIT-RIJ (Revised 2003 algorithm where possible)
Printlevel                                  ...      1
Contraction scheme used                     ... SEGMENTED contraction
Prescreening option                         ... SCHWARTZ
   Thresh                                   ... 2.500e-11
   Tcut                                     ... 2.500e-12
   Tpresel                                  ... 2.500e-12 
Coulomb Range Separation                    ... NOT USED
Exchange Range Separation                   ... Long Range
   Mu parameter                             ... 3.000e-01
   Scaling (regular/separated)              ... 1.500e-01 8.500e-01
Multipole approximations                    ... NOT USED
Finite Nucleus Model                        ... NOT USED
CABS basis                                  ... NOT available
Auxiliary Coulomb fitting basis             ... AVAILABLE
   # of basis functions in Aux-J            ...    191
   # of shells in Aux-J                     ...     65
   Maximum angular momentum in Aux-J        ...      4
Auxiliary J/K fitting basis                 ... NOT available
Auxiliary Correlation fitting basis         ... NOT available
Auxiliary 'external' fitting basis          ... NOT available

Checking pre-screening integrals            ... done (  0.0 sec) Dimension = 68
Check shell pair data                       ... done (  0.0 sec)
Shell pair information
Shell pair cut-off parameter TPreSel        ...   2.5e-12
Total number of shell pairs                 ...      2346
Shell pairs after pre-screening             ...      2324
Total number of primitive shell pairs       ...      5434
Primitive shell pairs kept                  ...      4843
          la=0 lb=0:    454 shell pairs
          la=1 lb=0:    655 shell pairs
          la=1 lb=1:    253 shell pairs
          la=2 lb=0:    385 shell pairs
          la=2 lb=1:    285 shell pairs
          la=2 lb=2:     91 shell pairs
          la=3 lb=0:     90 shell pairs
          la=3 lb=1:     66 shell pairs
          la=3 lb=2:     39 shell pairs
          la=3 lb=3:      6 shell pairs

Calculating one electron integrals          ... done (  0.0 sec)
Calculating RI/J V-Matrix + Cholesky decomp.... done (  0.0 sec)
Calculating Nuclear repulsion               ... done (  0.0 sec) ENN=     71.573795924458 Eh

Diagonalization of the overlap matrix:
Smallest eigenvalue                        ... 1.515e-06
Time for diagonalization                   ...    0.003 sec
Threshold for overlap eigenvalues          ... 1.000e-07
Number of eigenvalues below threshold      ... 0
Time for construction of square roots      ...    0.004 sec
Total time needed                          ...    0.008 sec

-------------------
DFT GRID GENERATION
-------------------

General Integration Accuracy     IntAcc      ... 4.388
Radial Grid Type                 RadialGrid  ... OptM3 with GC (2021)
Angular Grid (max. ang.)         AngularGrid ... 4 (Lebedev-302)
Angular grid pruning method      GridPruning ... 4 (adaptive)
Weight generation scheme         WeightScheme... mBecke (2022)
Basis function cutoff            BFCut       ... 1.0000e-11
Integration weight cutoff        WCut        ... 1.0000e-14
Partially contracted basis set               ... off
Rotationally invariant grid construction     ... off
Angular grids for H and He will be reduced by one unit
Diffuse basis detected: some atoms will have their outermost
                        angular grid increased by 1.

Total number of grid points                  ...    33042
Total number of batches                      ...      517
Average number of points per batch           ...       63
Average number of grid points per atom       ...     4720

--------------------
COSX GRID GENERATION
--------------------

GRIDX 1
-------
General Integration Accuracy     IntAcc      ... 3.816
Radial Grid Type                 RadialGrid  ... OptM3 with GC (2021)
Angular Grid (max. ang.)         AngularGrid ... 1 (Lebedev-50)
Angular grid pruning method      GridPruning ... 4 (adaptive)
Weight generation scheme         WeightScheme... mBecke (2022)
Basis function cutoff            BFCut       ... 1.0000e-11
Integration weight cutoff        WCut        ... 1.0000e-14
Partially contracted basis set               ... on
Rotationally invariant grid construction     ... off
Angular grids for H and He will be reduced by one unit
Diffuse basis detected: some atoms will have their outermost
                        angular grid increased by 1.

Total number of grid points                  ...     4161
Total number of batches                      ...       36
Average number of points per batch           ...      115
Average number of grid points per atom       ...      594
UseSFitting                                  ... on

GRIDX 2
-------
General Integration Accuracy     IntAcc      ... 4.020
Radial Grid Type                 RadialGrid  ... OptM3 with GC (2021)
Angular Grid (max. ang.)         AngularGrid ... 2 (Lebedev-110)
Angular grid pruning method      GridPruning ... 4 (adaptive)
Weight generation scheme         WeightScheme... mBecke (2022)
Basis function cutoff            BFCut       ... 1.0000e-11
Integration weight cutoff        WCut        ... 1.0000e-14
Partially contracted basis set               ... on
Rotationally invariant grid construction     ... off
Angular grids for H and He will be reduced by one unit
Diffuse basis detected: some atoms will have their outermost
                        angular grid increased by 1.

Total number of grid points                  ...    10228
Total number of batches                      ...       83
Average number of points per batch           ...      123
Average number of grid points per atom       ...     1461
UseSFitting                                  ... on

GRIDX 3
-------
General Integration Accuracy     IntAcc      ... 4.338
Radial Grid Type                 RadialGrid  ... OptM3 with GC (2021)
Angular Grid (max. ang.)         AngularGrid ... 3 (Lebedev-194)
Angular grid pruning method      GridPruning ... 4 (adaptive)
Weight generation scheme         WeightScheme... mBecke (2022)
Basis function cutoff            BFCut       ... 1.0000e-11
Integration weight cutoff        WCut        ... 1.0000e-14
Partially contracted basis set               ... on
Rotationally invariant grid construction     ... off
Angular grids for H and He will be reduced by one unit
Diffuse basis detected: some atoms will have their outermost
                        angular grid increased by 1.

Total number of grid points                  ...    23067
Total number of batches                      ...      184
Average number of points per batch           ...      125
Average number of grid points per atom       ...     3295
UseSFitting                                  ... on
Initializing property integral containers    ... done (  0.0 sec)

SHARK setup successfully completed in   0.5 seconds

Maximum memory used throughout the entire STARTUP-calculation: 13.8 MB
[1740983486.577671] [ohm:2819114:0]        ib_iface.c:1059 UCX  ERROR ibv_create_cq(cqe=256) failed: Connection timed out
[1740983486.593542] [ohm:2819116:0]        ib_iface.c:1059 UCX  ERROR ibv_create_cq(cqe=256) failed: Connection timed out
[1740983486.594141] [ohm:2819115:0]        ib_iface.c:1059 UCX  ERROR ibv_create_cq(cqe=256) failed: Connection timed out
[1740983486.595239] [ohm:2819117:0]        ib_iface.c:1059 UCX  ERROR ibv_create_cq(cqe=256) failed: Connection timed out
[1740983486.597796] [ohm:2819118:0]        ib_iface.c:1059 UCX  ERROR ibv_create_cq(cqe=256) failed: Connection timed out
[1740983486.599175] [ohm:2819121:0]        ib_iface.c:1059 UCX  ERROR ibv_create_cq(cqe=256) failed: Connection timed out
[1740983486.611149] [ohm:2819131:0]        ib_iface.c:1059 UCX  ERROR ibv_create_cq(cqe=256) failed: Connection timed out
[1740983486.620475] [ohm:2819120:0]        ib_iface.c:1059 UCX  ERROR ibv_create_cq(cqe=256) failed: Connection timed out
[1740983486.631118] [ohm:2819127:0]        ib_iface.c:1059 UCX  ERROR ibv_create_cq(cqe=256) failed: Connection timed out
[1740983486.643148] [ohm:2819123:0]        ib_iface.c:1059 UCX  ERROR ibv_create_cq(cqe=256) failed: Connection timed out
[1740983486.646989] [ohm:2819119:0]        ib_iface.c:1059 UCX  ERROR ibv_create_cq(cqe=256) failed: Connection timed out
[1740983486.653303] [ohm:2819227:0]        ib_iface.c:1059 UCX  ERROR ibv_create_cq(cqe=256) failed: Connection timed out
[1740983486.654549] [ohm:2819128:0]        ib_iface.c:1059 UCX  ERROR ibv_create_cq(cqe=256) failed: Connection timed out
[1740983486.669206] [ohm:2819126:0]        ib_iface.c:1059 UCX  ERROR ibv_create_cq(cqe=256) failed: Connection timed out
[1740983486.692684] [ohm:2819132:0]        ib_iface.c:1059 UCX  ERROR ibv_create_cq(cqe=256) failed: Connection timed out
[1740983486.709181] [ohm:2819125:0]        ib_iface.c:1059 UCX  ERROR ibv_create_cq(cqe=256) failed: Connection timed out
[1740983486.742094] [ohm:2819249:0]        ib_iface.c:1059 UCX  ERROR ibv_create_cq(cqe=256) failed: Connection timed out
[1740983486.750664] [ohm:2819215:0]        ib_iface.c:1059 UCX  ERROR ibv_create_cq(cqe=256) failed: Connection timed out
[1740983486.753334] [ohm:2819152:0]        ib_iface.c:1059 UCX  ERROR ibv_create_cq(cqe=256) failed: Connection timed out
[1740983486.753629] [ohm:2819236:0]        ib_iface.c:1059 UCX  ERROR ibv_create_cq(cqe=256) failed: Connection timed out
[1740983486.760653] [ohm:2819124:0]        ib_iface.c:1059 UCX  ERROR ibv_create_cq(cqe=256) failed: Connection timed out
[1740983486.767602] [ohm:2819268:0]        ib_iface.c:1059 UCX  ERROR ibv_create_cq(cqe=256) failed: Connection timed out
[1740983486.770728] [ohm:2819195:0]        ib_iface.c:1059 UCX  ERROR ibv_create_cq(cqe=256) failed: Connection timed out
[1740983486.779560] [ohm:2819231:0]        ib_iface.c:1059 UCX  ERROR ibv_create_cq(cqe=256) failed: Connection timed out
[1740983486.782958] [ohm:2819129:0]        ib_iface.c:1059 UCX  ERROR ibv_create_cq(cqe=256) failed: Connection timed out
[1740983486.784689] [ohm:2819138:0]        ib_iface.c:1059 UCX  ERROR ibv_create_cq(cqe=256) failed: Connection timed out
[1740983486.785495] [ohm:2819189:0]        ib_iface.c:1059 UCX  ERROR ibv_create_cq(cqe=256) failed: Connection timed out
[1740983486.787261] [ohm:2819223:0]        ib_iface.c:1059 UCX  ERROR ibv_create_cq(cqe=256) failed: Connection timed out
[1740983486.788197] [ohm:2819153:0]        ib_iface.c:1059 UCX  ERROR ibv_create_cq(cqe=256) failed: Connection timed out
[1740983486.796368] [ohm:2819135:0]        ib_iface.c:1059 UCX  ERROR ibv_create_cq(cqe=256) failed: Connection timed out
[1740983486.809432] [ohm:2819209:0]        ib_iface.c:1059 UCX  ERROR ibv_create_cq(cqe=256) failed: Connection timed out
[1740983486.824527] [ohm:2819151:0]        ib_iface.c:1059 UCX  ERROR ibv_create_cq(cqe=256) failed: Connection timed out
[1740983486.829185] [ohm:2819261:0]        ib_iface.c:1059 UCX  ERROR ibv_create_cq(cqe=256) failed: Connection timed out
[1740983486.831510] [ohm:2819205:0]        ib_iface.c:1059 UCX  ERROR ibv_create_cq(cqe=256) failed: Connection timed out
[1740983486.836177] [ohm:2819256:0]        ib_iface.c:1059 UCX  ERROR ibv_create_cq(cqe=256) failed: Connection timed out
[1740983486.837529] [ohm:2819206:0]        ib_iface.c:1059 UCX  ERROR ibv_create_cq(cqe=256) failed: Connection timed out
[1740983486.842361] [ohm:2819163:0]        ib_iface.c:1059 UCX  ERROR ibv_create_cq(cqe=256) failed: Connection timed out
[1740983486.843751] [ohm:2819199:0]        ib_iface.c:1059 UCX  ERROR ibv_create_cq(cqe=256) failed: Connection timed out
[1740983486.855270] [ohm:2819130:0]        ib_iface.c:1059 UCX  ERROR ibv_create_cq(cqe=256) failed: Connection timed out
[1740983486.857225] [ohm:2819134:0]        ib_iface.c:1059 UCX  ERROR ibv_create_cq(cqe=256) failed: Connection timed out
[1740983486.859131] [ohm:2819149:0]        ib_iface.c:1059 UCX  ERROR ibv_create_cq(cqe=256) failed: Connection timed out
[1740983486.862347] [ohm:2819156:0]        ib_iface.c:1059 UCX  ERROR ibv_create_cq(cqe=256) failed: Connection timed out
[1740983486.873970] [ohm:2819194:0]        ib_iface.c:1059 UCX  ERROR ibv_create_cq(cqe=256) failed: Connection timed out
[1740983486.879815] [ohm:2819162:0]        ib_iface.c:1059 UCX  ERROR ibv_create_cq(cqe=256) failed: Connection timed out
[1740983486.879870] [ohm:2819150:0]        ib_iface.c:1059 UCX  ERROR ibv_create_cq(cqe=256) failed: Connection timed out
[1740983486.885254] [ohm:2819201:0]        ib_iface.c:1059 UCX  ERROR ibv_create_cq(cqe=256) failed: Connection timed out
[1740983486.885786] [ohm:2819175:0]        ib_iface.c:1059 UCX  ERROR ibv_create_cq(cqe=256) failed: Connection timed out
[1740983486.888055] [ohm:2819222:0]        ib_iface.c:1059 UCX  ERROR ibv_create_cq(cqe=256) failed: Connection timed out
[1740983486.888491] [ohm:2819145:0]        ib_iface.c:1059 UCX  ERROR ibv_create_cq(cqe=256) failed: Connection timed out
[1740983486.892923] [ohm:2819245:0]        ib_iface.c:1059 UCX  ERROR ibv_create_cq(cqe=256) failed: Connection timed out
[1740983486.894883] [ohm:2819158:0]        ib_iface.c:1059 UCX  ERROR ibv_create_cq(cqe=256) failed: Connection timed out
[1740983486.898841] [ohm:2819238:0]        ib_iface.c:1059 UCX  ERROR ibv_create_cq(cqe=256) failed: Connection timed out
[1740983486.899890] [ohm:2819187:0]        ib_iface.c:1059 UCX  ERROR ibv_create_cq(cqe=256) failed: Connection timed out
[1740983486.900161] [ohm:2819182:0]        ib_iface.c:1059 UCX  ERROR ibv_create_cq(cqe=256) failed: Connection timed out
[1740983486.901256] [ohm:2819171:0]        ib_iface.c:1059 UCX  ERROR ibv_create_cq(cqe=256) failed: Connection timed out
[1740983486.905525] [ohm:2819122:0]        ib_iface.c:1059 UCX  ERROR ibv_create_cq(cqe=256) failed: Connection timed out
[1740983486.906963] [ohm:2819139:0]        ib_iface.c:1059 UCX  ERROR ibv_create_cq(cqe=256) failed: Connection timed out
[1740983486.909901] [ohm:2819276:0]        ib_iface.c:1059 UCX  ERROR ibv_create_cq(cqe=256) failed: Connection timed out
[1740983486.911103] [ohm:2819243:0]        ib_iface.c:1059 UCX  ERROR ibv_create_cq(cqe=256) failed: Connection timed out
[1740983486.911095] [ohm:2819214:0]        ib_iface.c:1059 UCX  ERROR ibv_create_cq(cqe=256) failed: Connection timed out
[1740983486.912016] [ohm:2819178:0]        ib_iface.c:1059 UCX  ERROR ibv_create_cq(cqe=256) failed: Connection timed out
[1740983486.913472] [ohm:2819167:0]        ib_iface.c:1059 UCX  ERROR ibv_create_cq(cqe=256) failed: Connection timed out
[1740983486.914939] [ohm:2819168:0]        ib_iface.c:1059 UCX  ERROR ibv_create_cq(cqe=256) failed: Connection timed out
[1740983486.915388] [ohm:2819144:0]        ib_iface.c:1059 UCX  ERROR ibv_create_cq(cqe=256) failed: Connection timed out


           ************************************************************
           *        Program running with 64 parallel MPI-processes    *
           *              working on a common directory               *
           ************************************************************
-------------------------------------------------------------------------------
                                 ORCA GUESS
                   Start orbitals & Density for SCF / CASSCF
-------------------------------------------------------------------------------

------------
SCF SETTINGS
------------
Hamiltonian:
 Density Functional     Method          .... DFT(GTOs)
  Functional kind                       .... Exchange-Correlation
  Functional name                       .... wB97M-V exchange-correlation functional
  Functional family                     .... Hybrid MGGA
  Functional refs                              
    [ 0] N. Mardirossian and M. Head-Gordon.,  J. Chem. Phys. 144, 214110 (2016), doi: 10.1063/1.4952647
  Fraction of HF Exchange (short range) .... 0.1500
  Fraction of HF Exchange (long range)  .... 1.0000
  Range separation parameter mu         .... 0.3000
  Functional external parameters        .... 17
    Parameter  0 _cx00      =  8.500000e-01 : u^00 coefficient for exchange
    Parameter  1 _cx01      =  1.007000e+00 : u^01 coefficient for exchange
    Parameter  2 _cx10      =  2.590000e-01 : u^10 coefficient for exchange
    Parameter  3 _css00     =  4.430000e-01 : u^00 coefficient for same-spin correlation
    Parameter  4 _css04     = -1.437000e+00 : u^04 coefficient for same-spin correlation
    Parameter  5 _css10     = -4.535000e+00 : u^10 coefficient for same-spin correlation
    Parameter  6 _css20     = -3.390000e+00 : u^20 coefficient for same-spin correlation
    Parameter  7 _css43     =  4.278000e+00 : u^43 coefficient for same-spin correlation
    Parameter  8 _cos00     =  1.000000e+00 : u^00 coefficient for opposite-spin correlation
    Parameter  9 _cos10     =  1.358000e+00 : u^10 coefficient for opposite-spin correlation
    Parameter 10 _cos20     =  2.924000e+00 : u^20 coefficient for opposite-spin correlation
    Parameter 11 _cos21     = -8.812000e+00 : u^21 coefficient for opposite-spin correlation
    Parameter 12 _cos60     = -1.390000e+00 : u^60 coefficient for opposite-spin correlation
    Parameter 13 _cos61     =  9.142000e+00 : u^61 coefficient for opposite-spin correlation
    Parameter 14 _alpha     =  1.000000e+00 : fraction of HF exchange
    Parameter 15 _beta      = -8.500000e-01 : fraction of short-range exchange
    Parameter 16 _omega     =  3.000000e-01 : range-separation constant
 Long-range corrected/Screened/Range-Separated Hybrid DFT is turned on
   Amount of maximum screened exact exchange              ....  0.850000
   Range separation parameter mu (erf(mu*r12)/r12)        ....  0.300000
 RI-approximation to the Coulomb term is turned on
   Number of AuxJ basis functions       .... 191
   RIJ-COSX (HFX calculated with COS-X)).... on


General Settings:
 Integral files         IntName         .... orca
 Hartree-Fock type      HFTyp           .... RHF
 Total Charge           Charge          ....    0
 Multiplicity           Mult            ....    1
 Number of Electrons    NEL             ....   24
 Basis Dimension        Dim             ....  182
 Nuclear Repulsion      ENuc            ....     71.5737959245 Eh

Convergence Acceleration:
 AO-DIIS                CNVDIIS         .... on
   Start iteration      DIISMaxIt       ....    12
   Startup error        DIISStart       ....  0.200000
   # of expansion vecs  DIISMaxEq       ....     5
   Bias factor          DIISBfac        ....   1.050
   Max. coefficient     DIISMaxC        ....  10.000
 MO-DIIS                CNVKDIIS        .... off
 Trust-Rad. Augm. Hess. CNVTRAH         .... auto
   Auto Start mean grad. ratio tolernc. ....  1.125000
   Auto Start start iteration           ....    50
   Auto Start num. interpolation iter.  ....    10
   Max. Number of Micro iterations      ....    24
   Max. Number of Macro iterations      .... Maxiter - #DIIS iter
   Number of Davidson start vectors     ....     2
   Converg. threshold    (grad. norm)   ....   1.000e-05
   Grad. Scal. Fac. for Micro threshold ....   0.100
   Minimum threshold for Micro iter.    ....   1.000e-02
   NR start threshold (gradient norm)   ....   1.000e-04
   Initial trust radius                 ....   0.400
   Minimum AH scaling param. (alpha)    ....   1.000
   Maximum AH scaling param. (alpha)    .... 1000.000
   Quad. conv. algorithm                .... NR
   White noise on init. David. guess    .... on
   Maximum white noise                  ....   0.010
   Pseudo random numbers                .... off
   Inactive MOs                         .... canonical
   Orbital update algorithm             .... Taylor
   Preconditioner                       .... Diag
   Full preconditioner red. dimension   ....   250
 SOSCF                  CNVSOSCF        .... on
   Start iteration      SOSCFMaxIt      ....   150
   Startup grad/error   SOSCFStart      ....  0.003300
   Hessian update       SOSCFHessUp     .... L-BFGS
 Level Shifting         CNVShift        .... on
   Level shift para.    LevelShift      ....    0.2500
   Turn off err/grad.   ShiftErr        ....    0.0010
 Zerner damping         CNVZerner       .... off
 Static damping         CNVDamp         .... on
   Fraction old density DampFac         ....    0.7000
   Max. Damping (<1)    DampMax         ....    0.9800
   Min. Damping (>=0)   DampMin         ....    0.0000
   Turn off err/grad.   DampErr         ....    0.1000

SCF Procedure:
 Maximum # iterations   MaxIter         ....   125
 SCF integral mode      SCFMode         .... Direct
   Integral package                     .... SHARK and LIBINT hybrid scheme
 Reset frequency        DirectResetFreq ....    20
 Integral Threshold     Thresh          ....  2.500e-11 Eh
 Primitive CutOff       TCut            ....  2.500e-12 Eh

Convergence Tolerance:
 Convergence Check Mode ConvCheckMode   .... Total+1el-Energy
 Convergence forced     ConvForced      .... 0
 Energy Change          TolE            ....  1.000e-08 Eh
 1-El. energy change                    ....  1.000e-05 Eh
 Orbital Gradient       TolG            ....  1.000e-05
 Orbital Rotation angle TolX            ....  1.000e-05
 DIIS Error             TolErr          ....  5.000e-07

------------------------------
INITIAL GUESS: MODEL POTENTIAL
------------------------------
Loading Hartree-Fock densities                     ... done
Calculating cut-offs                               ... done
Initializing the effective Hamiltonian             ... done
Setting up the integral package (SHARK)            ... done
Starting the Coulomb interaction                   ... done (   0.0 sec)
Making the grid                                    ... done (   0.0 sec)
Mapping shells                                     ... done
Starting the XC term evaluation                    ... done (   0.0 sec)
  promolecular density results
     # of electrons  =     23.999335839
     EX              =    -19.587966045
     EC              =     -0.776228398
     EX+EC           =    -20.364194443
Transforming the Hamiltonian                       ... done (   0.0 sec)
Diagonalizing the Hamiltonian                      ... done (   0.0 sec)
Back transforming the eigenvectors                 ... done (   0.0 sec)
Now organizing SCF variables                       ... done
                      ------------------
                      INITIAL GUESS DONE (   0.1 sec)
                      ------------------
             **** ENERGY FILE WAS UPDATED (orca.en.tmp) ****
Finished Guess after   1.8 sec
Maximum memory used throughout the entire GUESS-calculation: 9.5 MB
[1740983488.597331] [ohm:2819444:0]        ib_iface.c:1059 UCX  ERROR ibv_create_cq(cqe=256) failed: Connection timed out
[1740983488.610342] [ohm:2819445:0]        ib_iface.c:1059 UCX  ERROR ibv_create_cq(cqe=256) failed: Connection timed out
[1740983488.649200] [ohm:2819443:0]        ib_iface.c:1059 UCX  ERROR ibv_create_cq(cqe=256) failed: Connection timed out
[1740983488.700251] [ohm:2819446:0]        ib_iface.c:1059 UCX  ERROR ibv_create_cq(cqe=256) failed: Connection timed out
[1740983488.733723] [ohm:2819448:0]        ib_iface.c:1059 UCX  ERROR ibv_create_cq(cqe=256) failed: Connection timed out
[1740983488.736791] [ohm:2819481:0]        ib_iface.c:1059 UCX  ERROR ibv_create_cq(cqe=256) failed: Connection timed out
[1740983488.739934] [ohm:2819447:0]        ib_iface.c:1059 UCX  ERROR ibv_create_cq(cqe=256) failed: Connection timed out
[1740983488.740075] [ohm:2819465:0]        ib_iface.c:1059 UCX  ERROR ibv_create_cq(cqe=256) failed: Connection timed out
[1740983488.740228] [ohm:2819466:0]        ib_iface.c:1059 UCX  ERROR ibv_create_cq(cqe=256) failed: Connection timed out
[1740983488.742410] [ohm:2819486:0]        ib_iface.c:1059 UCX  ERROR ibv_create_cq(cqe=256) failed: Connection timed out
[1740983488.747317] [ohm:2819489:0]        ib_iface.c:1059 UCX  ERROR ibv_create_cq(cqe=256) failed: Connection timed out
[1740983488.748772] [ohm:2819449:0]        ib_iface.c:1059 UCX  ERROR ibv_create_cq(cqe=256) failed: Connection timed out
[1740983488.794407] [ohm:2819534:0]        ib_iface.c:1059 UCX  ERROR ibv_create_cq(cqe=256) failed: Connection timed out
[1740983488.799148] [ohm:2819505:0]        ib_iface.c:1059 UCX  ERROR ibv_create_cq(cqe=256) failed: Connection timed out
[1740983488.825839] [ohm:2819519:0]        ib_iface.c:1059 UCX  ERROR ibv_create_cq(cqe=256) failed: Connection timed out
[1740983488.852570] [ohm:2819485:0]        ib_iface.c:1059 UCX  ERROR ibv_create_cq(cqe=256) failed: Connection timed out
[1740983488.857663] [ohm:2819493:0]        ib_iface.c:1059 UCX  ERROR ibv_create_cq(cqe=256) failed: Connection timed out
[1740983488.860245] [ohm:2819530:0]        ib_iface.c:1059 UCX  ERROR ibv_create_cq(cqe=256) failed: Connection timed out
[1740983488.861778] [ohm:2819578:0]        ib_iface.c:1059 UCX  ERROR ibv_create_cq(cqe=256) failed: Connection timed out
[1740983488.865369] [ohm:2819483:0]        ib_iface.c:1059 UCX  ERROR ibv_create_cq(cqe=256) failed: Connection timed out
[1740983488.869294] [ohm:2819463:0]        ib_iface.c:1059 UCX  ERROR ibv_create_cq(cqe=256) failed: Connection timed out
[1740983488.871680] [ohm:2819555:0]        ib_iface.c:1059 UCX  ERROR ibv_create_cq(cqe=256) failed: Connection timed out
[1740983488.874537] [ohm:2819490:0]        ib_iface.c:1059 UCX  ERROR ibv_create_cq(cqe=256) failed: Connection timed out
[1740983488.878056] [ohm:2819513:0]        ib_iface.c:1059 UCX  ERROR ibv_create_cq(cqe=256) failed: Connection timed out
[1740983488.878144] [ohm:2819500:0]        ib_iface.c:1059 UCX  ERROR ibv_create_cq(cqe=256) failed: Connection timed out
[1740983488.882076] [ohm:2819571:0]        ib_iface.c:1059 UCX  ERROR ibv_create_cq(cqe=256) failed: Connection timed out
[1740983488.892334] [ohm:2819515:0]        ib_iface.c:1059 UCX  ERROR ibv_create_cq(cqe=256) failed: Connection timed out
[1740983488.897018] [ohm:2819487:0]        ib_iface.c:1059 UCX  ERROR ibv_create_cq(cqe=256) failed: Connection timed out
[1740983488.901218] [ohm:2819595:0]        ib_iface.c:1059 UCX  ERROR ibv_create_cq(cqe=256) failed: Connection timed out
[1740983488.908738] [ohm:2819542:0]        ib_iface.c:1059 UCX  ERROR ibv_create_cq(cqe=256) failed: Connection timed out
[1740983488.919312] [ohm:2819576:0]        ib_iface.c:1059 UCX  ERROR ibv_create_cq(cqe=256) failed: Connection timed out
[1740983488.930356] [ohm:2819511:0]        ib_iface.c:1059 UCX  ERROR ibv_create_cq(cqe=256) failed: Connection timed out
[1740983488.938497] [ohm:2819516:0]        ib_iface.c:1059 UCX  ERROR ibv_create_cq(cqe=256) failed: Connection timed out
[1740983488.941580] [ohm:2819540:0]        ib_iface.c:1059 UCX  ERROR ibv_create_cq(cqe=256) failed: Connection timed out
[1740983488.943909] [ohm:2819610:0]        ib_iface.c:1059 UCX  ERROR ibv_create_cq(cqe=256) failed: Connection timed out
[1740983488.944637] [ohm:2819502:0]        ib_iface.c:1059 UCX  ERROR ibv_create_cq(cqe=256) failed: Connection timed out
[1740983488.960328] [ohm:2819537:0]        ib_iface.c:1059 UCX  ERROR ibv_create_cq(cqe=256) failed: Connection timed out
[1740983488.962507] [ohm:2819548:0]        ib_iface.c:1059 UCX  ERROR ibv_create_cq(cqe=256) failed: Connection timed out
[1740983488.967635] [ohm:2819583:0]        ib_iface.c:1059 UCX  ERROR ibv_create_cq(cqe=256) failed: Connection timed out
[1740983488.969530] [ohm:2819488:0]        ib_iface.c:1059 UCX  ERROR ibv_create_cq(cqe=256) failed: Connection timed out
[1740983488.977766] [ohm:2819559:0]        ib_iface.c:1059 UCX  ERROR ibv_create_cq(cqe=256) failed: Connection timed out
[1740983488.978816] [ohm:2819508:0]        ib_iface.c:1059 UCX  ERROR ibv_create_cq(cqe=256) failed: Connection timed out
[1740983488.981871] [ohm:2819563:0]        ib_iface.c:1059 UCX  ERROR ibv_create_cq(cqe=256) failed: Connection timed out
[1740983488.982612] [ohm:2819507:0]        ib_iface.c:1059 UCX  ERROR ibv_create_cq(cqe=256) failed: Connection timed out
[1740983488.984155] [ohm:2819520:0]        ib_iface.c:1059 UCX  ERROR ibv_create_cq(cqe=256) failed: Connection timed out
[1740983488.984685] [ohm:2819603:0]        ib_iface.c:1059 UCX  ERROR ibv_create_cq(cqe=256) failed: Connection timed out
[1740983488.988670] [ohm:2819546:0]        ib_iface.c:1059 UCX  ERROR ibv_create_cq(cqe=256) failed: Connection timed out
[1740983488.993247] [ohm:2819587:0]        ib_iface.c:1059 UCX  ERROR ibv_create_cq(cqe=256) failed: Connection timed out
[1740983488.996796] [ohm:2819525:0]        ib_iface.c:1059 UCX  ERROR ibv_create_cq(cqe=256) failed: Connection timed out
[1740983489.008808] [ohm:2819527:0]        ib_iface.c:1059 UCX  ERROR ibv_create_cq(cqe=256) failed: Connection timed out
[1740983489.012925] [ohm:2819512:0]        ib_iface.c:1059 UCX  ERROR ibv_create_cq(cqe=256) failed: Connection timed out
[1740983489.013287] [ohm:2819484:0]        ib_iface.c:1059 UCX  ERROR ibv_create_cq(cqe=256) failed: Connection timed out
[1740983489.013577] [ohm:2819518:0]        ib_iface.c:1059 UCX  ERROR ibv_create_cq(cqe=256) failed: Connection timed out
[1740983489.013616] [ohm:2819496:0]        ib_iface.c:1059 UCX  ERROR ibv_create_cq(cqe=256) failed: Connection timed out
[1740983489.014501] [ohm:2819510:0]        ib_iface.c:1059 UCX  ERROR ibv_create_cq(cqe=256) failed: Connection timed out
[1740983489.015096] [ohm:2819462:0]        ib_iface.c:1059 UCX  ERROR ibv_create_cq(cqe=256) failed: Connection timed out
[1740983489.015495] [ohm:2819551:0]        ib_iface.c:1059 UCX  ERROR ibv_create_cq(cqe=256) failed: Connection timed out
[1740983489.017662] [ohm:2819514:0]        ib_iface.c:1059 UCX  ERROR ibv_create_cq(cqe=256) failed: Connection timed out
[1740983489.018195] [ohm:2819467:0]        ib_iface.c:1059 UCX  ERROR ibv_create_cq(cqe=256) failed: Connection timed out
[1740983489.018234] [ohm:2819592:0]        ib_iface.c:1059 UCX  ERROR ibv_create_cq(cqe=256) failed: Connection timed out
[1740983489.019740] [ohm:2819464:0]        ib_iface.c:1059 UCX  ERROR ibv_create_cq(cqe=256) failed: Connection timed out
[1740983489.019880] [ohm:2819517:0]        ib_iface.c:1059 UCX  ERROR ibv_create_cq(cqe=256) failed: Connection timed out
[1740983489.020604] [ohm:2819567:0]        ib_iface.c:1059 UCX  ERROR ibv_create_cq(cqe=256) failed: Connection timed out
[1740983489.020831] [ohm:2819580:0]        ib_iface.c:1059 UCX  ERROR ibv_create_cq(cqe=256) failed: Connection timed out


           ************************************************************
           *        Program running with 64 parallel MPI-processes    *
           *              working on a common directory               *
           ************************************************************

-------------------------------------------------------------------------------------------
                                      ORCA LEAN-SCF
                              memory conserving SCF solver
-------------------------------------------------------------------------------------------

----------------------------------------D-I-I-S--------------------------------------------
Iteration    Energy (Eh)           Delta-E    RMSDP     MaxDP     DIISErr   Damp  Time(sec)
-------------------------------------------------------------------------------------------
               ***  Starting incremental Fock matrix formation  ***
    1    -153.3282995630782466     0.00e+00  3.10e-03  1.33e-01  2.31e-01  0.700   0.2
    2    -153.3962480344529808    -6.79e-02  2.35e-03  8.30e-02  1.42e-01  0.700   0.2
                               ***Turning on AO-DIIS***
    3    -153.4311235551912773    -3.49e-02  1.62e-03  5.09e-02  7.63e-02  0.700   0.2
    4    -153.4516733035674463    -2.05e-02  3.97e-03  1.29e-01  4.99e-02  0.000   0.2
    5    -153.4954758494331486    -4.38e-02  4.55e-04  1.88e-02  3.57e-03  0.000   0.2
                              *** Initializing SOSCF ***
---------------------------------------S-O-S-C-F--------------------------------------
Iteration    Energy (Eh)           Delta-E    RMSDP     MaxDP     MaxGrad    Time(sec)
--------------------------------------------------------------------------------------
    6    -153.4955370948050586    -6.12e-05  2.12e-04  8.39e-03  1.57e-03     0.2
               *** Restarting incremental Fock matrix formation ***
    7    -153.4955458642156430    -8.77e-06  1.41e-04  5.81e-03  7.86e-04     0.2
    8    -153.4955560220502093    -1.02e-05  1.93e-04  8.52e-03  6.23e-04     0.2
    9    -153.4955669757529222    -1.10e-05  8.02e-05  2.22e-03  2.71e-04     0.2
   10    -153.4955707724773788    -3.80e-06  1.22e-04  2.84e-03  1.47e-04     0.2
   11    -153.4955736177529388    -2.85e-06  2.41e-05  1.11e-03  1.01e-04     0.2
   12    -153.4955739764952227    -3.59e-07  2.18e-05  7.36e-04  4.94e-05     0.2
   13    -153.4955740389910090    -6.25e-08  1.02e-05  3.52e-04  1.90e-05     0.2
   14    -153.4955740548830647    -1.59e-08  4.78e-06  1.16e-04  1.49e-05     0.2
   15    -153.4955740649039342    -1.00e-08  8.54e-06  3.39e-04  9.64e-06     0.2
   16    -153.4955740710018119    -6.10e-09  7.37e-06  4.12e-04  8.46e-06     0.2
                 **** Energy Check signals convergence ****

               *****************************************************
               *                     SUCCESS                       *
               *           SCF CONVERGED AFTER  16 CYCLES          *
               *****************************************************

Recomputing exchange energy using gridx3       ... done (    0.161 sec)
Old exchange energy                            :     -6.212517281 Eh
New exchange energy                            :     -6.212518153 Eh
Exchange energy change after final integration :     -0.000000872 Eh
Total energy after final integration           :   -153.495574943 Eh
             **** ENERGY FILE WAS UPDATED (orca.en.tmp) ****

----------------
TOTAL SCF ENERGY
----------------

Total Energy       :       -153.49557494287291 Eh           -4176.82694 eV

Components:
Nuclear Repulsion  :         71.57379592445784 Eh            1947.62200 eV
Electronic Energy  :       -225.06936999545962 Eh           -6124.44892 eV
One Electron Energy:       -349.11317363188647 Eh           -9499.85242 eV
Two Electron Energy:        124.04380363642683 Eh            3375.40350 eV

Virial components:
Potential Energy   :       -308.20366731792569 Eh           -8386.64816 eV
Kinetic Energy     :        154.70809237505281 Eh            4209.82122 eV
Virial Ratio       :          1.99216254680951

DFT components:
N(Alpha)           :       11.999922896913 electrons
N(Beta)            :       11.999922896913 electrons
N(Total)           :       23.999845793826 electrons
E(XC)              :      -14.875468414569 Eh       

---------------
SCF CONVERGENCE
---------------

  Last Energy change         ...    6.0979e-09  Tolerance :   1.0000e-08
  Last MAX-Density change    ...    4.1156e-04  Tolerance :   1.0000e-07
  Last RMS-Density change    ...    7.3708e-06  Tolerance :   5.0000e-09
  Last DIIS Error            ...    1.5669e-03  Tolerance :   5.0000e-07
  Last Orbital Gradient      ...    8.4589e-06  Tolerance :   1.0000e-05
  Last Orbital Rotation      ...    7.1910e-05  Tolerance :   1.0000e-05


----------------
ORBITAL ENERGIES
----------------

  NO   OCC          E(Eh)            E(eV) 
   0   2.0000     -19.316571      -525.6306 
   1   2.0000     -10.392516      -282.7947 
   2   2.0000     -10.365072      -282.0479 
   3   2.0000      -1.071701       -29.1625 
   4   2.0000      -0.981503       -26.7080 
   5   2.0000      -0.711042       -19.3484 
   6   2.0000      -0.708462       -19.2782 
   7   2.0000      -0.606476       -16.5030 
   8   2.0000      -0.515818       -14.0361 
   9   2.0000      -0.460696       -12.5362 
  10   2.0000      -0.354309        -9.6413 
  11   2.0000      -0.343684        -9.3521 
  12   0.0000      -0.063910        -1.7391 
  13   0.0000       0.030063         0.8181 
  14   0.0000       0.059663         1.6235 
  15   0.0000       0.060637         1.6500 
  16   0.0000       0.099646         2.7115 
  17   0.0000       0.114298         3.1102 
  18   0.0000       0.120923         3.2905 
  19   0.0000       0.123540         3.3617 
  20   0.0000       0.137940         3.7535 
  21   0.0000       0.143603         3.9076 
  22   0.0000       0.194343         5.2884 
*Only the first 10 virtual orbitals were printed.

                    ********************************
                    * MULLIKEN POPULATION ANALYSIS *
                    ********************************

-----------------------
MULLIKEN ATOMIC CHARGES
-----------------------
   0 O :   -0.455885
   1 C :    0.118643
   2 C :   -0.276840
   3 H :    0.185672
   4 H :    0.182331
   5 H :    0.124729
   6 H :    0.121350
Sum of atomic charges:   -0.0000000

--------------------------------
MULLIKEN REDUCED ORBITAL CHARGES
--------------------------------
  0 O s       :     3.975196  s :     3.975196
      pz      :     1.942029  p :     4.472799
      px      :     1.818834
      py      :     0.711936
      dz2     :     0.001078  d :     0.007139
      dxz     :     0.000655
      dyz     :     0.001608
      dx2y2   :     0.002308
      dxy     :     0.001492
      f0      :     0.000059  f :     0.000751
      f+1     :     0.000033
      f-1     :     0.000140
      f+2     :     0.000059
      f-2     :     0.000039
      f+3     :     0.000259
      f-3     :     0.000162

  1 C s       :     3.111582  s :     3.111582
      pz      :     0.906771  p :     2.608068
      px      :     0.819469
      py      :     0.881828
      dz2     :     0.007701  d :     0.151868
      dxz     :     0.015061
      dyz     :     0.058081
      dx2y2   :     0.049602
      dxy     :     0.021423
      f0      :     0.001542  f :     0.009839
      f+1     :     0.000050
      f-1     :     0.000906
      f+2     :     0.001007
      f-2     :     0.001337
      f+3     :     0.003546
      f-3     :     0.001452

  2 C s       :     3.309519  s :     3.309519
      pz      :     1.130492  p :     2.860136
      px      :     0.888570
      py      :     0.841074
      dz2     :     0.009885  d :     0.100949
      dxz     :     0.056973
      dyz     :     0.005238
      dx2y2   :     0.017530
      dxy     :     0.011323
      f0      :     0.001208  f :     0.006236
      f+1     :    -0.000018
      f-1     :     0.000062
      f+2     :     0.001568
      f-2     :     0.000700
      f+3     :     0.002408
      f-3     :     0.000309

  3 H s       :     0.765453  s :     0.765453
      pz      :     0.008613  p :     0.044678
      px      :     0.021230
      py      :     0.014835
      dz2     :     0.000746  d :     0.004197
      dxz     :     0.001626
      dyz     :     0.000782
      dx2y2   :     0.000761
      dxy     :     0.000282

  4 H s       :     0.766553  s :     0.766553
      pz      :     0.008915  p :     0.046912
      px      :     0.022068
      py      :     0.015929
      dz2     :     0.000761  d :     0.004204
      dxz     :     0.001608
      dyz     :     0.000821
      dx2y2   :     0.000738
      dxy     :     0.000276

  5 H s       :     0.834078  s :     0.834078
      pz      :     0.017440  p :     0.039124
      px      :     0.013241
      py      :     0.008443
      dz2     :     0.000622  d :     0.002069
      dxz     :     0.000531
      dyz     :     0.000356
      dx2y2   :     0.000273
      dxy     :     0.000288

  6 H s       :     0.837648  s :     0.837648
      pz      :     0.017027  p :     0.038814
      px      :     0.013353
      py      :     0.008434
      dz2     :     0.000654  d :     0.002188
      dxz     :     0.000573
      dyz     :     0.000373
      dx2y2   :     0.000274
      dxy     :     0.000314



                     *******************************
                     * LOEWDIN POPULATION ANALYSIS *
                     *******************************

----------------------
LOEWDIN ATOMIC CHARGES
----------------------
   0 O :   -0.156145
   1 C :   -0.220868
   2 C :    0.145160
   3 H :    0.077329
   4 H :    0.070229
   5 H :    0.043792
   6 H :    0.040502

-------------------------------
LOEWDIN REDUCED ORBITAL CHARGES
-------------------------------
  0 O s       :     3.608394  s :     3.608394
      pz      :     1.824372  p :     4.380459
      px      :     1.726885
      py      :     0.829202
      dz2     :     0.015492  d :     0.165600
      dxz     :     0.004117
      dyz     :     0.054427
      dx2y2   :     0.049944
      dxy     :     0.041620
      f0      :     0.000138  f :     0.001692
      f+1     :     0.000067
      f-1     :     0.000327
      f+2     :     0.000132
      f-2     :     0.000104
      f+3     :     0.000555
      f-3     :     0.000370

  1 C s       :     2.573733  s :     2.573733
      pz      :     0.817039  p :     2.637885
      px      :     1.023438
      py      :     0.797407
      dz2     :     0.094359  d :     0.902046
      dxz     :     0.251563
      dyz     :     0.154543
      dx2y2   :     0.226285
      dxy     :     0.175296
      f0      :     0.015822  f :     0.107205
      f+1     :     0.011525
      f-1     :     0.008437
      f+2     :     0.008408
      f-2     :     0.017232
      f+3     :     0.021971
      f-3     :     0.023809

  2 C s       :     2.629169  s :     2.629169
      pz      :     0.852570  p :     2.484870
      px      :     0.922653
      py      :     0.709647
      dz2     :     0.051173  d :     0.661389
      dxz     :     0.361207
      dyz     :     0.060202
      dx2y2   :     0.102869
      dxy     :     0.085939
      f0      :     0.013194  f :     0.079412
      f+1     :     0.012024
      f-1     :     0.005094
      f+2     :     0.010973
      f-2     :     0.007436
      f+3     :     0.014176
      f-3     :     0.016514

  3 H s       :     0.597137  s :     0.597137
      pz      :     0.103267  p :     0.290264
      px      :     0.099154
      py      :     0.087842
      dz2     :     0.008189  d :     0.035270
      dxz     :     0.011494
      dyz     :     0.008391
      dx2y2   :     0.004714
      dxy     :     0.002483

  4 H s       :     0.600445  s :     0.600445
      pz      :     0.104885  p :     0.293788
      px      :     0.099276
      py      :     0.089628
      dz2     :     0.008581  d :     0.035538
      dxz     :     0.011594
      dyz     :     0.008613
      dx2y2   :     0.004430
      dxy     :     0.002320

  5 H s       :     0.691081  s :     0.691081
      pz      :     0.113078  p :     0.237049
      px      :     0.072597
      py      :     0.051374
      dz2     :     0.009788  d :     0.028078
      dxz     :     0.007331
      dyz     :     0.005327
      dx2y2   :     0.002632
      dxy     :     0.003000

  6 H s       :     0.690629  s :     0.690629
      pz      :     0.114775  p :     0.240300
      px      :     0.074244
      py      :     0.051282
      dz2     :     0.010015  d :     0.028569
      dxz     :     0.007649
      dyz     :     0.005428
      dx2y2   :     0.002549
      dxy     :     0.002928



                      *****************************
                      * MAYER POPULATION ANALYSIS *
                      *****************************

  NA   - Mulliken gross atomic population
  ZA   - Total nuclear charge
  QA   - Mulliken gross atomic charge
  VA   - Mayer's total valence
  BVA  - Mayer's bonded valence
  FA   - Mayer's free valence

  ATOM       NA         ZA         QA         VA         BVA        FA
  0 O      8.4559     8.0000    -0.4559     0.9534     0.9534    -0.0000
  1 C      5.8814     6.0000     0.1186     3.5890     3.5890    -0.0000
  2 C      6.2768     6.0000    -0.2768     3.6409     3.6409    -0.0000
  3 H      0.8143     1.0000     0.1857     1.0157     1.0157    -0.0000
  4 H      0.8177     1.0000     0.1823     1.0291     1.0291    -0.0000
  5 H      0.8753     1.0000     0.1247     1.0434     1.0434    -0.0000
  6 H      0.8786     1.0000     0.1214     1.0424     1.0424    -0.0000

  Mayer bond orders larger than 0.100000
B(  0-O ,  1-C ) :   0.6184 B(  0-O ,  2-C ) :   0.2128 B(  1-C ,  2-C ) :   1.2637 
B(  1-C ,  3-H ) :   0.8716 B(  1-C ,  4-H ) :   0.8897 B(  2-C ,  5-H ) :   1.0374 
B(  2-C ,  6-H ) :   1.0326 

-------
TIMINGS
-------

Total SCF time: 0 days 0 hours 0 min 5 sec 

Total time                  ....       5.178 sec
Sum of individual times     ....       5.139 sec  ( 99.2%)

SCF preparation             ....       1.667 sec  ( 32.2%)
Fock matrix formation       ....       2.941 sec  ( 56.8%)
  Startup                   ....       0.031 sec  (  1.0% of F)
  Split-RI-J                ....       0.388 sec  ( 13.2% of F)
  Chain of spheres X        ....       1.820 sec  ( 61.9% of F)
  XC integration            ....       0.584 sec  ( 19.9% of F)
    XC Preparation          ....       0.000 sec  (  0.0% of XC)
    Basis function eval.    ....       0.044 sec  (  7.5% of XC)
    Density eval.           ....       0.094 sec  ( 16.1% of XC)
    XC-Functional eval.     ....       0.012 sec  (  2.0% of XC)
    XC-Potential eval.      ....       0.114 sec  ( 19.4% of XC)
Diagonalization             ....       0.000 sec  (  0.0%)
Density matrix formation    ....       0.060 sec  (  1.2%)
Total Energy calculation    ....       0.065 sec  (  1.3%)
Population analysis         ....       0.022 sec  (  0.4%)
Orbital Transformation      ....       0.037 sec  (  0.7%)
Orbital Orthonormalization  ....       0.000 sec  (  0.0%)
DIIS solution               ....       0.205 sec  (  4.0%)
SOSCF solution              ....       0.142 sec  (  2.8%)
Finished LeanSCF after   5.2 sec

Maximum memory used throughout the entire LEANSCF-calculation: 13.3 MB


-------------------------------------------------------------------------------
                          DFT DISPERSION CORRECTION                            
                                                                               
                              DFTD3 V3.1  Rev 1                                
                          USING Becke-Johnson damping                          
-------------------------------------------------------------------------------
The WB97M functional is recognized
Active option DFTDOPT                   ...         4   

molecular C6(AA) [au] = 392.784815 


            DFT-D V3
 parameters
 s6 scaling factor         :     1.0000 
 a1 scaling factor         :     0.5660 
 s8 scaling factor         :     0.3908 
 a2 scaling factor         :     3.1280 
 ad hoc parameters k1-k3   :    16.0000     1.3333    -4.0000 

 Edisp/kcal,au: -3.580518660211  -0.005705919076 
 E6   /kcal   :  -2.891837864 
 E8   /kcal   :  -0.688680797 
 % E8         :  19.234107177 

-------------------------   ----------------
Dispersion correction           -0.005705919
-------------------------   ----------------


-------------------------   --------------------
FINAL SINGLE POINT ENERGY      -153.501280861949
-------------------------   --------------------

[1740983494.319177] [ohm:2819811:0]        ib_iface.c:1059 UCX  ERROR ibv_create_cq(cqe=256) failed: Connection timed out
[1740983494.324648] [ohm:2819804:0]        ib_iface.c:1059 UCX  ERROR ibv_create_cq(cqe=256) failed: Connection timed out
[1740983494.330556] [ohm:2819806:0]        ib_iface.c:1059 UCX  ERROR ibv_create_cq(cqe=256) failed: Connection timed out
[1740983494.331813] [ohm:2819809:0]        ib_iface.c:1059 UCX  ERROR ibv_create_cq(cqe=256) failed: Connection timed out
[1740983494.340794] [ohm:2819805:0]        ib_iface.c:1059 UCX  ERROR ibv_create_cq(cqe=256) failed: Connection timed out
[1740983494.345174] [ohm:2819810:0]        ib_iface.c:1059 UCX  ERROR ibv_create_cq(cqe=256) failed: Connection timed out
[1740983494.348205] [ohm:2819807:0]        ib_iface.c:1059 UCX  ERROR ibv_create_cq(cqe=256) failed: Connection timed out
[1740983494.364346] [ohm:2819803:0]        ib_iface.c:1059 UCX  ERROR ibv_create_cq(cqe=256) failed: Connection timed out
[1740983494.369065] [ohm:2819828:0]        ib_iface.c:1059 UCX  ERROR ibv_create_cq(cqe=256) failed: Connection timed out
[1740983494.376891] [ohm:2819802:0]        ib_iface.c:1059 UCX  ERROR ibv_create_cq(cqe=256) failed: Connection timed out
[1740983494.376974] [ohm:2819891:0]        ib_iface.c:1059 UCX  ERROR ibv_create_cq(cqe=256) failed: Connection timed out
[1740983494.378038] [ohm:2819808:0]        ib_iface.c:1059 UCX  ERROR ibv_create_cq(cqe=256) failed: Connection timed out
[1740983494.379841] [ohm:2819850:0]        ib_iface.c:1059 UCX  ERROR ibv_create_cq(cqe=256) failed: Connection timed out
[1740983494.385892] [ohm:2819872:0]        ib_iface.c:1059 UCX  ERROR ibv_create_cq(cqe=256) failed: Connection timed out
[1740983494.402410] [ohm:2819825:0]        ib_iface.c:1059 UCX  ERROR ibv_create_cq(cqe=256) failed: Connection timed out
[1740983494.409703] [ohm:2819853:0]        ib_iface.c:1059 UCX  ERROR ibv_create_cq(cqe=256) failed: Connection timed out
[1740983494.444250] [ohm:2819830:0]        ib_iface.c:1059 UCX  ERROR ibv_create_cq(cqe=256) failed: Connection timed out
[1740983494.477273] [ohm:2819836:0]        ib_iface.c:1059 UCX  ERROR ibv_create_cq(cqe=256) failed: Connection timed out
[1740983494.480961] [ohm:2819854:0]        ib_iface.c:1059 UCX  ERROR ibv_create_cq(cqe=256) failed: Connection timed out
[1740983494.486525] [ohm:2819851:0]        ib_iface.c:1059 UCX  ERROR ibv_create_cq(cqe=256) failed: Connection timed out
[1740983494.487796] [ohm:2819858:0]        ib_iface.c:1059 UCX  ERROR ibv_create_cq(cqe=256) failed: Connection timed out
[1740983494.496872] [ohm:2819829:0]        ib_iface.c:1059 UCX  ERROR ibv_create_cq(cqe=256) failed: Connection timed out
[...]
[1740984168.098121] [ohm:2901187:0]        ib_iface.c:1059 UCX  ERROR ibv_create_cq(cqe=256) failed: Connection timed out
[1740984168.099399] [ohm:2901090:0]        ib_iface.c:1059 UCX  ERROR ibv_create_cq(cqe=256) failed: Connection timed out
[1740984168.100583] [ohm:2901192:0]        ib_iface.c:1059 UCX  ERROR ibv_create_cq(cqe=256) failed: Connection timed out
[1740984168.101846] [ohm:2901213:0]        ib_iface.c:1059 UCX  ERROR ibv_create_cq(cqe=256) failed: Connection timed out
[1740984168.104443] [ohm:2901108:0]        ib_iface.c:1059 UCX  ERROR ibv_create_cq(cqe=256) failed: Connection timed out
[1740984168.107183] [ohm:2901112:0]        ib_iface.c:1059 UCX  ERROR ibv_create_cq(cqe=256) failed: Connection timed out
[1740984168.111660] [ohm:2901181:0]        ib_iface.c:1059 UCX  ERROR ibv_create_cq(cqe=256) failed: Connection timed out
[1740984168.113604] [ohm:2901165:0]        ib_iface.c:1059 UCX  ERROR ibv_create_cq(cqe=256) failed: Connection timed out
[1740984168.114148] [ohm:2901080:0]        ib_iface.c:1059 UCX  ERROR ibv_create_cq(cqe=256) failed: Connection timed out
[1740984168.117036] [ohm:2901161:0]        ib_iface.c:1059 UCX  ERROR ibv_create_cq(cqe=256) failed: Connection timed out
[1740984168.120220] [ohm:2901201:0]        ib_iface.c:1059 UCX  ERROR ibv_create_cq(cqe=256) failed: Connection timed out
[1740984168.125218] [ohm:2901176:0]        ib_iface.c:1059 UCX  ERROR ibv_create_cq(cqe=256) failed: Connection timed out
[1740984168.125859] [ohm:2901223:0]        ib_iface.c:1059 UCX  ERROR ibv_create_cq(cqe=256) failed: Connection timed out
[1740984168.129605] [ohm:2901199:0]        ib_iface.c:1059 UCX  ERROR ibv_create_cq(cqe=256) failed: Connection timed out
[1740984168.130147] [ohm:2901154:0]        ib_iface.c:1059 UCX  ERROR ibv_create_cq(cqe=256) failed: Connection timed out
[1740984168.131127] [ohm:2901204:0]        ib_iface.c:1059 UCX  ERROR ibv_create_cq(cqe=256) failed: Connection timed out
[1740984168.131914] [ohm:2901208:0]        ib_iface.c:1059 UCX  ERROR ibv_create_cq(cqe=256) failed: Connection timed out
[1740984168.131967] [ohm:2901216:0]        ib_iface.c:1059 UCX  ERROR ibv_create_cq(cqe=256) failed: Connection timed out
[1740984168.132476] [ohm:2901115:0]        ib_iface.c:1059 UCX  ERROR ibv_create_cq(cqe=256) failed: Connection timed out
[1740984168.133966] [ohm:2901081:0]        ib_iface.c:1059 UCX  ERROR ibv_create_cq(cqe=256) failed: Connection timed out
[1740984168.135822] [ohm:2901150:0]        ib_iface.c:1059 UCX  ERROR ibv_create_cq(cqe=256) failed: Connection timed out
[1740984168.136271] [ohm:2901166:0]        ib_iface.c:1059 UCX  ERROR ibv_create_cq(cqe=256) failed: Connection timed out
[1740984168.136523] [ohm:2901210:0]        ib_iface.c:1059 UCX  ERROR ibv_create_cq(cqe=256) failed: Connection timed out
[1740984168.137217] [ohm:2901073:0]        ib_iface.c:1059 UCX  ERROR ibv_create_cq(cqe=256) failed: Connection timed out


           ************************************************************
           *        Program running with 64 parallel MPI-processes    *
           *              working on a common directory               *
           ************************************************************

------------------------------------------------------------------------------
                              ORCA PROPERTY CALCULATIONS
------------------------------------------------------------------------------

GBWName                                 ... orca.gbw
Number of atoms                         ...      7
Number of basis functions               ...    182
Max core memory                         ...   1024 MB

Electric properties:
Dipole moment                           ... YES
Quadrupole moment                       ...  NO
Static polarizability (Dipole/Dipole)   ...  NO
Static polarizability (Dipole/Quad.)    ...  NO
Static polarizability (Quad./Quad.)     ...  NO
Static polarizability (Velocity)        ...  NO

Atomic electric properties:
Dipole moment                           ...  NO
Quadrupole moment                       ...  NO
Static polarizability                   ...  NO

Choice of electric origin               ... Center of mass
Position of electric origin             ...     0.549340     0.492250    -0.015748

General magnetic properties:
Magnetizability                         ...  NO

EPR properties:
g-Tensor (aka g-matrix)                 ...  NO
Zero-Field splitting spin-orbit         ...  NO
Zero-field splitting spin-spin          ...  NO
Hyperfine couplings                     ...  NO (   0 nuclei)
Quadrupole couplings                    ...  NO (   0 nuclei)
Contact density                         ...  NO (   0 nuclei)

NMR properties:
Chemical shifts                         ...  NO (   0 nuclei)
Spin-rotation constants                 ...  NO (   0 nuclei)
Spin-spin couplings                     ...  NO (   0 nuclei,    0 pairs)

Choice of magnetic origin               ... GIAO
Position of magnetic origin             ...     0.000000     0.000000     0.000000

Properties with geometric perturbations:
SCF Hessian                             ...  NO
IR spectrum                             ...  NO
VCD spectrum                            ...  NO
X-ray spectroscopy properties:
SCF XES/XAS/RIXS spectra                ...  NO


-------------
DIPOLE MOMENT
-------------

Method             : SCF
Type of density    : Electron Density
Multiplicity       :   1
Irrep              :   0
Energy             :  -153.9186917173482527 Eh
Relativity type    : 
Basis              : AO
                                X                 Y                 Z
Electronic contribution:      1.496656461       3.137832776       0.039597853
Nuclear contribution   :     -1.900482870      -4.257446026       0.058920508
                        -----------------------------------------
Total Dipole Moment    :     -0.403826409      -1.119613250       0.098518362
                        -----------------------------------------
Magnitude (a.u.)       :      1.194284500
Magnitude (Debye)      :      3.035629953



--------------------
Rotational spectrum 
--------------------
 
Rotational constants in cm-1:             2.335340             0.310244             0.288396 
Rotational constants in MHz :         70011.734379          9300.885169          8645.904315 

Dipole components along the rotational axes: 
x,y,z [a.u.] :     1.152507     0.313119     0.000253 
x,y,z [Debye]:     2.929440     0.795885     0.000642 

 

Dipole moment calculation done in   0.0 sec 

Maximum memory used throughout the entire PROP-calculation: 11.0 MB
[1740984169.852801] [ohm:2901419:0]        ib_iface.c:1059 UCX  ERROR ibv_create_cq(cqe=256) failed: Connection timed out
[1740984169.853063] [ohm:2901424:0]        ib_iface.c:1059 UCX  ERROR ibv_create_cq(cqe=256) failed: Connection timed out
[1740984169.859567] [ohm:2901420:0]        ib_iface.c:1059 UCX  ERROR ibv_create_cq(cqe=256) failed: Connection timed out
[1740984169.880962] [ohm:2901418:0]        ib_iface.c:1059 UCX  ERROR ibv_create_cq(cqe=256) failed: Connection timed out
[1740984169.898749] [ohm:2901457:0]        ib_iface.c:1059 UCX  ERROR ibv_create_cq(cqe=256) failed: Connection timed out
[1740984169.902367] [ohm:2901422:0]        ib_iface.c:1059 UCX  ERROR ibv_create_cq(cqe=256) failed: Connection timed out
[1740984169.904626] [ohm:2901431:0]        ib_iface.c:1059 UCX  ERROR ibv_create_cq(cqe=256) failed: Connection timed out
[1740984169.905564] [ohm:2901427:0]        ib_iface.c:1059 UCX  ERROR ibv_create_cq(cqe=256) failed: Connection timed out
[1740984169.905915] [ohm:2901421:0]        ib_iface.c:1059 UCX  ERROR ibv_create_cq(cqe=256) failed: Connection timed out
[1740984169.937170] [ohm:2901444:0]        ib_iface.c:1059 UCX  ERROR ibv_create_cq(cqe=256) failed: Connection timed out
[1740984169.937405] [ohm:2901453:0]        ib_iface.c:1059 UCX  ERROR ibv_create_cq(cqe=256) failed: Connection timed out
[1740984169.946866] [ohm:2901466:0]        ib_iface.c:1059 UCX  ERROR ibv_create_cq(cqe=256) failed: Connection timed out
[1740984170.023228] [ohm:2901484:0]        ib_iface.c:1059 UCX  ERROR ibv_create_cq(cqe=256) failed: Connection timed out
[1740984170.025646] [ohm:2901439:0]        ib_iface.c:1059 UCX  ERROR ibv_create_cq(cqe=256) failed: Connection timed out
[1740984170.025821] [ohm:2901472:0]        ib_iface.c:1059 UCX  ERROR ibv_create_cq(cqe=256) failed: Connection timed out
[1740984170.036208] [ohm:2901493:0]        ib_iface.c:1059 UCX  ERROR ibv_create_cq(cqe=256) failed: Connection timed out
[1740984170.037286] [ohm:2901426:0]        ib_iface.c:1059 UCX  ERROR ibv_create_cq(cqe=256) failed: Connection timed out
[1740984170.057549] [ohm:2901450:0]        ib_iface.c:1059 UCX  ERROR ibv_create_cq(cqe=256) failed: Connection timed out
[1740984170.066447] [ohm:2901519:0]        ib_iface.c:1059 UCX  ERROR ibv_create_cq(cqe=256) failed: Connection timed out
[1740984170.070042] [ohm:2901430:0]        ib_iface.c:1059 UCX  ERROR ibv_create_cq(cqe=256) failed: Connection timed out
[1740984170.071725] [ohm:2901425:0]        ib_iface.c:1059 UCX  ERROR ibv_create_cq(cqe=256) failed: Connection timed out
[1740984170.085978] [ohm:2901429:0]        ib_iface.c:1059 UCX  ERROR ibv_create_cq(cqe=256) failed: Connection timed out
[1740984170.090166] [ohm:2901547:0]        ib_iface.c:1059 UCX  ERROR ibv_create_cq(cqe=256) failed: Connection timed out
[1740984170.092813] [ohm:2901514:0]        ib_iface.c:1059 UCX  ERROR ibv_create_cq(cqe=256) failed: Connection timed out
[1740984170.096441] [ohm:2901423:0]        ib_iface.c:1059 UCX  ERROR ibv_create_cq(cqe=256) failed: Connection timed out
[1740984170.105266] [ohm:2901522:0]        ib_iface.c:1059 UCX  ERROR ibv_create_cq(cqe=256) failed: Connection timed out
[1740984170.109796] [ohm:2901543:0]        ib_iface.c:1059 UCX  ERROR ibv_create_cq(cqe=256) failed: Connection timed out
[1740984170.110925] [ohm:2901501:0]        ib_iface.c:1059 UCX  ERROR ibv_create_cq(cqe=256) failed: Connection timed out
[1740984170.112442] [ohm:2901555:0]        ib_iface.c:1059 UCX  ERROR ibv_create_cq(cqe=256) failed: Connection timed out
[1740984170.113260] [ohm:2901539:0]        ib_iface.c:1059 UCX  ERROR ibv_create_cq(cqe=256) failed: Connection timed out
[1740984170.114422] [ohm:2901461:0]        ib_iface.c:1059 UCX  ERROR ibv_create_cq(cqe=256) failed: Connection timed out
[1740984170.114854] [ohm:2901533:0]        ib_iface.c:1059 UCX  ERROR ibv_create_cq(cqe=256) failed: Connection timed out
[1740984170.119519] [ohm:2901562:0]        ib_iface.c:1059 UCX  ERROR ibv_create_cq(cqe=256) failed: Connection timed out
[1740984170.134786] [ohm:2901507:0]        ib_iface.c:1059 UCX  ERROR ibv_create_cq(cqe=256) failed: Connection timed out
[1740984170.135431] [ohm:2901449:0]        ib_iface.c:1059 UCX  ERROR ibv_create_cq(cqe=256) failed: Connection timed out
[1740984170.137912] [ohm:2901524:0]        ib_iface.c:1059 UCX  ERROR ibv_create_cq(cqe=256) failed: Connection timed out
[1740984170.157362] [ohm:2901481:0]        ib_iface.c:1059 UCX  ERROR ibv_create_cq(cqe=256) failed: Connection timed out
[1740984170.162614] [ohm:2901482:0]        ib_iface.c:1059 UCX  ERROR ibv_create_cq(cqe=256) failed: Connection timed out
[1740984170.162624] [ohm:2901504:0]        ib_iface.c:1059 UCX  ERROR ibv_create_cq(cqe=256) failed: Connection timed out
[1740984170.166000] [ohm:2901443:0]        ib_iface.c:1059 UCX  ERROR ibv_create_cq(cqe=256) failed: Connection timed out
[1740984170.168373] [ohm:2901446:0]        ib_iface.c:1059 UCX  ERROR ibv_create_cq(cqe=256) failed: Connection timed out
[1740984170.168367] [ohm:2901478:0]        ib_iface.c:1059 UCX  ERROR ibv_create_cq(cqe=256) failed: Connection timed out
[1740984170.168730] [ohm:2901529:0]        ib_iface.c:1059 UCX  ERROR ibv_create_cq(cqe=256) failed: Connection timed out
[1740984170.175900] [ohm:2901476:0]        ib_iface.c:1059 UCX  ERROR ibv_create_cq(cqe=256) failed: Connection timed out
[1740984170.178764] [ohm:2901553:0]        ib_iface.c:1059 UCX  ERROR ibv_create_cq(cqe=256) failed: Connection timed out
[1740984170.183581] [ohm:2901474:0]        ib_iface.c:1059 UCX  ERROR ibv_create_cq(cqe=256) failed: Connection timed out
[1740984170.186701] [ohm:2901470:0]        ib_iface.c:1059 UCX  ERROR ibv_create_cq(cqe=256) failed: Connection timed out
[1740984170.189085] [ohm:2901558:0]        ib_iface.c:1059 UCX  ERROR ibv_create_cq(cqe=256) failed: Connection timed out
[1740984170.190694] [ohm:2901512:0]        ib_iface.c:1059 UCX  ERROR ibv_create_cq(cqe=256) failed: Connection timed out
[1740984170.194069] [ohm:2901480:0]        ib_iface.c:1059 UCX  ERROR ibv_create_cq(cqe=256) failed: Connection timed out
[1740984170.197695] [ohm:2901509:0]        ib_iface.c:1059 UCX  ERROR ibv_create_cq(cqe=256) failed: Connection timed out
[1740984170.198863] [ohm:2901549:0]        ib_iface.c:1059 UCX  ERROR ibv_create_cq(cqe=256) failed: Connection timed out
[1740984170.200136] [ohm:2901448:0]        ib_iface.c:1059 UCX  ERROR ibv_create_cq(cqe=256) failed: Connection timed out
[1740984170.202928] [ohm:2901536:0]        ib_iface.c:1059 UCX  ERROR ibv_create_cq(cqe=256) failed: Connection timed out
[1740984170.203159] [ohm:2901428:0]        ib_iface.c:1059 UCX  ERROR ibv_create_cq(cqe=256) failed: Connection timed out
[1740984170.203576] [ohm:2901454:0]        ib_iface.c:1059 UCX  ERROR ibv_create_cq(cqe=256) failed: Connection timed out
[1740984170.204379] [ohm:2901451:0]        ib_iface.c:1059 UCX  ERROR ibv_create_cq(cqe=256) failed: Connection timed out
[1740984170.204487] [ohm:2901498:0]        ib_iface.c:1059 UCX  ERROR ibv_create_cq(cqe=256) failed: Connection timed out
[1740984170.205727] [ohm:2901479:0]        ib_iface.c:1059 UCX  ERROR ibv_create_cq(cqe=256) failed: Connection timed out
[1740984170.207381] [ohm:2901531:0]        ib_iface.c:1059 UCX  ERROR ibv_create_cq(cqe=256) failed: Connection timed out
[1740984170.208876] [ohm:2901485:0]        ib_iface.c:1059 UCX  ERROR ibv_create_cq(cqe=256) failed: Connection timed out
[1740984170.209995] [ohm:2901463:0]        ib_iface.c:1059 UCX  ERROR ibv_create_cq(cqe=256) failed: Connection timed out
[1740984170.212574] [ohm:2901487:0]        ib_iface.c:1059 UCX  ERROR ibv_create_cq(cqe=256) failed: Connection timed out
[1740984170.220691] [ohm:2901492:0]        ib_iface.c:1059 UCX  ERROR ibv_create_cq(cqe=256) failed: Connection timed out

--------------------------------
SUGGESTED CITATIONS FOR THIS RUN
--------------------------------

Below you find a list of papers that are relevant to this ORCA run
We neither can nor want to force you to cite these papers, but we appreciate if you do
You receive ORCA, which is the product of decades of hard work by many enthusiastic individuals, for free
The only thing we kindly ask in return is that you cite our papers,
We deeply appreciate it, if you show your appreciation for ORCA by not just citing the generic ORCA reference.

Please note that relegating all ORCA citations to the supporting information does *not* help us.
SI sections are not indexed - citations you put there will not count into any citation statistics
But we need these citations in order to attract the funding resources that allow us to do what we are doing

Therefore, if you are a happy ORCA user, please consider citing a few of the papers listed below in the main body of your paper

In addition to the list printed below, the program has created the file orca.bibtex that contains the list in bibtex format
You can import this file easily into all common literature databanks and citation aid programs


List of essential papers. We consider these as the minimum necessary citations

  1. Neese,F.
     Software update: the ORCA program system, version 5.0
     WIRES Comput. Molec. Sci., 2022 12(1)e1606
     doi.org/10.1002/wcms.1606

List of papers to cite with high priority. The work reported in these papers was absolutely
necessary for this run to complete.
Our perspective: the developers of density functionals and basis sets usually get cited in chemistry papers
Good! But without the algorithms to do something with them, the functionals or basis sets would not do anything.
Hence, in our opinion, the algorithm design and method developments papers are equally worthy of getting cited

  1. Neese,F.
     An improvement of the resolution of the identity approximation for the formation of the Coulomb matrix
     J. Comp. Chem., 2003 24(14)1740-1747
     doi.org/10.1002/jcc.10318
  2. Neese,F.; Wennmohs,F.; Hansen,A.; Becker,U.
     Efficient, approximate and parallel Hartree-Fock and hybrid DFT calculations. A 'chain-of-spheres' algorithm for the Hartree-Fock exchange
     Chem. Phys., 2009 356(1-3)98-109
     doi.org/10.1016/j.chemphys.2008.10.036
  3. Helmich-Paris,B.; de Souza,B.; Neese,F.; Izsák,R.
     An improved chain of spheres for exchange algorithm
     J. Chem. Phys., 2021 155 104109
     doi.org/doi: 10.1063/5.0058766.
  4. Neese,F.
     The SHARK Integral Generation and Digestion System
     J. Comp. Chem., 2022  1-16
     doi.org/10.1002/jcc.26942
  5. Lehtola,S.; Steigemann,C.; Oliveira,M.; Marques,M.
     Recent developments in Libxc - A comprehensive library of functionals for density functional theory
     Software X, 2018 7 
     doi.org/10.1016/j.softx.2017.11.002
  6. Grimme,S.; Antony,J.; Ehrlich,S.; Krieg,H.
     A consistent and accurate ab initio parametrization of density functional dispersion correction (DFT-D) for the 94 elements H-Pu
     J. Chem. Phys., 2010 132 154104-XXXX
     doi.org/10.1063/1.3382344
  7. Grimme,S.; Ehrlich,S.; Goerigk,L.
     Effect of the damping function in dispersion corrected density functional theory
     J. Comput. Chem., 2011 32(7)1456-1465
     doi.org/10.1002/jcc.21759

List of suggested additional citations. These are papers that are important in the 'surrounding' of 
of this run, or papers that preceded the highly important papers. If you like your results we are grateful for a citation.

  1. Izsak,R.; Neese,F.
     An overlap fitted chain of spheres exchange method
     J. Chem. Phys., 2011 135 144105
     doi.org/10.1063/1.3646921
  2. Izsak,R.; Hansen,A.; Neese,F.
     The resolution of identity and chain of spheres approximations for the LPNO-CCSD singles Fock term
     Molec. Phys., 2012 110 2413-2417
     doi.org/10.1080/00268976.2012.687466
  3. Neese,F.
     The ORCA program system
     WIRES Comput. Molec. Sci., 2012 2(1)73-78
     doi.org/10.1002/wcms.81
  4. Izsak,R.; Neese,F.; Klopper,W.
     Robust fitting techniques in the chain of spheres approximation to the Fock exchange: The role of the complementary space
     J. Chem. Phys., 2013 139 
     doi.org/10.1063/1.4819264
  5. Neese,F.
     Software update: the ORCA program system, version 4.0
     WIRES Comput. Molec. Sci., 2018 8(1)1-6
     doi.org/10.1002/wcms.1327
  6. Neese,F.; Wennmohs,F.; Becker,U.; Riplinger,C.
     The ORCA quantum chemistry program package
     J. Chem. Phys., 2020 152 Art. No. L224108
     doi.org/10.1063/5.0004608

List of optional additional citations

  1. Neese,F.
     Approximate second-order SCF convergence for spin unrestricted wavefunctions
     Chem. Phys. Lett., 2000 325(1-3)93-98
     doi.org/10.1016/s0009-2614(00)00662-x

Timings for individual modules:

Sum of individual times          ...      587.357 sec (=   9.789 min)
Startup calculation              ...      116.681 sec (=   1.945 min)  19.9 %
SCF iterations                   ...      326.240 sec (=   5.437 min)  55.5 %
Property calculations            ...        2.082 sec (=   0.035 min)   0.4 %
SCF Gradient evaluation          ...      142.256 sec (=   2.371 min)  24.2 %
Geometry relaxation              ...        0.099 sec (=   0.002 min)   0.0 %
                             ****ORCA TERMINATED NORMALLY****
TOTAL RUN TIME: 0 days 0 hours 11 minutes 27 seconds 846 msec
