30
Properties=species:S:1:pos:R:3:momenta:R:3:forces:R:3 Coordinates=T from=T ORCA-job=T orca=T E=T -908.730803908782=T energy=-24728.807957420242 free_energy=-24728.807957420242 stress="3.5001893462858872e-06 -1.0022828634851266e-06 4.014809989016937e-07 -1.0022828634851266e-06 4.0059355807261153e-07 -5.134890981937826e-07 4.014809989016937e-07 -5.134890981937826e-07 1.2403343819379692e-06" pbc="F F F"
O        3.64380438       0.35856532      -0.43460045      -0.02014173       0.05519877       0.12473821      -0.18353371       0.05218863       0.17553294
O       -1.18458385       1.21793616      -2.61973494      -0.01682417      -0.06164889      -0.07162577      -0.05086235       0.03590434      -0.09362972
O        0.47903059      -2.74724416      -0.79718849      -0.08019371      -0.23255743       0.00427083       0.10681323       0.11511572      -0.00833643
O       -3.06659520      -1.71387520       0.20894124      -0.01326294      -0.10501980       0.03822195       0.04481787       0.01703829       0.01041385
N        0.33551791      -1.30387359       0.95433560      -0.07470382      -0.16728908      -0.14345016      -0.14181048      -0.22797738      -0.23476590
N       -2.06389940       0.12410556       1.10444156      -0.03124269      -0.20284191       0.10488366       0.29672874      -0.06734626      -0.07374455
N        1.74832813      -0.84844025      -0.82027397       0.21176459       0.03572350       0.02414260       0.03672146       0.38964493       0.41510259
N       -1.74659364      -0.41794439      -1.13024640      -0.06031824       0.03277378       0.05540513      -0.10158922      -0.00588936       0.02540957
C        1.96575042       0.39299536       1.22625034      -0.64112763       0.16973713       0.22284257      -2.39540884       0.42131951      -0.16115846
C       -1.01019073       1.69536636      -0.31073108       0.10437548      -0.13597867       0.08190231       0.47012160      -0.88749408       0.88923025
C        0.43672254       0.05059148       1.44588574       0.12409863       0.08874714       0.06534300       1.01230239      -0.05918320      -0.11105550
C       -0.88640685       0.96642326       1.03714197       0.18162035       0.15800786      -0.36117842       0.55253289       0.44920868      -0.78315178
C        2.76517230       1.00978154       2.29269942       0.09386336       0.26656157      -0.25618488       0.00113476       0.00186453       0.22741406
C       -1.06119629       3.15861037      -0.40528774       0.01778423      -0.21543739      -0.15781292       0.24072116       0.12071637       0.13901234
C        2.54259140       0.00741267      -0.03970606       0.04556845      -0.26159456       0.00861435       0.18167126      -0.25229440      -0.27814459
C       -1.30341684       0.86446692      -1.46281485       0.11755985       0.26565670      -0.06894418       0.09912009       0.05691349       0.26464623
C        0.81993209      -1.71373069      -0.26520891      -0.03434741       0.00269811       0.26290261      -0.33396885      -0.20381549       0.21244808
C       -2.34456600      -0.75105513       0.08032246       0.05383945       0.24460908       0.01301139      -0.13032752      -0.06093283      -0.02996292
H        0.30174117      -0.01200062       2.52407548      -0.05218992       0.03682593      -0.04628060       0.05954138       0.05172094       0.05720405
H       -0.95224524       1.71607142       1.81826475       0.05103604      -0.02764899       0.00757623      -0.00196088       0.04506179       0.05318181
H        3.80738655       1.08362343       1.99490217      -0.01992635       0.03047833      -0.06183102      -0.03216041      -0.00031058       0.02625362
H        2.40032779       2.00905462       2.55588316       0.02976970      -0.01368013       0.03837002       0.00068197      -0.03600993      -0.04158371
H        2.67892241       0.40935100       3.21722452      -0.01451531      -0.03079432       0.00795584       0.07232641       0.15593363      -0.25056620
H       -2.00832576       3.53354408       0.01771900       0.01238139      -0.03445855       0.00340499       0.07528360      -0.10152611      -0.05191759
H       -0.26695401       3.63203718       0.18182219      -0.01526186       0.01376742       0.06807014      -0.03951980      -0.01573864      -0.09426520
H       -1.00554987       3.47358894      -1.44120102       0.01029661       0.02673719       0.00166627       0.02633782       0.04433040      -0.03718490
H       -0.32535142      -1.94219818       1.36911560      -0.04149104       0.06012522      -0.03206270       0.01264146       0.08490640      -0.13193426
H       -2.48253407      -0.10539147       1.98521104       0.04237042       0.03454575       0.01047788       0.00490256      -0.07433807       0.09237260
H        2.16270848      -1.16284089      -1.67384414      -0.03192925       0.00866945       0.02246342       0.11533514      -0.07819097      -0.23100368
H       -1.93972979      -1.04889933      -1.89309157       0.05114750      -0.04191321       0.03310727       0.00140627       0.02917966       0.02418341
