7
Properties=species:S:1:pos:R:3:momenta:R:3:forces:R:3 Coordinates=T from=T ORCA-job=T orca=T E=T -153.873139603898=T energy=-4182.840880992669 free_energy=-4182.840880992669 stress="6.490299407317021e-06 9.915170052329254e-06 -2.0825460336513857e-06 9.915170052329254e-06 -1.7470993487811723e-05 -2.527115103905711e-06 -2.0825460336513857e-06 -2.527115103905711e-06 6.317565520082801e-06" pbc="F F F"
O       -0.16513580       0.97852900      -0.23925181      -1.06157318       2.88968506      -0.87591825      -1.39937763       1.89351489       0.62037088
C        0.77646556      -0.84654497       0.03604854       0.62350793      -1.20706738       0.01787258      -2.31029423      -1.93320403      -0.03291738
C       -0.60322546      -0.28235779       0.23057917       1.13653387      -1.11518943      -0.47019108       0.73713597       0.41175011      -0.01823612
H        1.27813864      -1.30222428       0.83571385      -0.19416015      -0.02162742       0.34906147       0.74417054      -0.21959839       0.45933183
H        0.86139363      -1.05271725      -1.00072216      -0.02433814      -0.43519906       0.07558249       1.11366786      -0.13819878      -0.41969052
H       -1.42834463      -0.50119329      -0.50131525      -0.15703553      -0.22848619       0.65249252       0.50293377      -0.58998213       0.71354294
H       -1.04096598      -0.33221436       1.28996614      -0.32293480       0.11788441       0.25110027       0.61176372       0.57571834      -1.32240163
