
                                 *****************
                                 * O   R   C   A *
                                 *****************

                                            #,                                       
                                            ###                                      
                                            ####                                     
                                            #####                                    
                                            ######                                   
                                           ########,                                 
                                     ,,################,,,,,                         
                               ,,#################################,,                 
                          ,,##########################################,,             
                       ,#########################################, ''#####,          
                    ,#############################################,,   '####,        
                  ,##################################################,,,,####,       
                ,###########''''           ''''###############################       
              ,#####''   ,,,,##########,,,,          '''####'''          '####       
            ,##' ,,,,###########################,,,                        '##       
           ' ,,###''''                  '''############,,,                           
         ,,##''                                '''############,,,,        ,,,,,,###''
      ,#''                                            '''#######################'''  
     '                                                          ''''####''''         
             ,#######,   #######,   ,#######,      ##                                
            ,#'     '#,  ##    ##  ,#'     '#,    #''#        ,####,   ,####,        
            ##       ##  ##   ,#'  ##            #'  '#       #'       #'  '#        
            ##       ##  #######   ##           ,######,      #####,   #    #        
            '#,     ,#'  ##    ##  '#,     ,#' ,#      #,     #,   #   #,  ,#        
             '#######'   ##     ##  '#######'  #'      '#     '####' # '####'        



                #########################################################
                #                        -***-                          #
                #          Department of theory and spectroscopy        #
                #                                                       #
                #                      Frank Neese                      #
                #                                                       #
                #     Directorship, Architecture, Infrastructure        #
                #                    SHARK, DRIVERS                     #
                #        Core code/Algorithms in most modules           #
                #                                                       #
                #        Max Planck Institute fuer Kohlenforschung      #
                #                Kaiser Wilhelm Platz 1                 #
                #                 D-45470 Muelheim/Ruhr                 #
                #                      Germany                          #
                #                                                       #
                #                  All rights reserved                  #
                #                        -***-                          #
                #########################################################


                         Program Version 6.0.0  -   RELEASE  -


 With contributions from (in alphabetic order):
   Daniel Aravena         : Magnetic Suceptibility
   Michael Atanasov       : Ab Initio Ligand Field Theory (pilot matlab implementation)
   Alexander A. Auer      : GIAO ZORA, VPT2 properties, NMR spectrum
   Ute Becker             : All parallelization in ORCA, NUMFREQ, NUMCALC
   Giovanni Bistoni       : ED, misc. LED, open-shell LED, HFLD
   Martin Brehm           : Molecular dynamics
   Dmytro Bykov           : pre 5.0 version of the SCF Hessian
   Marcos Casanova-Páez   : Triplet and SCS-CIS(D). UHF-(DLPNO)-IP/EA/STEOM-CCSD. UHF-CVS-IP/STEOM-CCSD
   Vijay G. Chilkuri      : MRCI spin determinant printing, contributions to CSF-ICE
   Pauline Colinet        : FMM embedding
   Dipayan Datta          : RHF DLPNO-CCSD density
   Achintya Kumar Dutta   : EOM-CC, STEOM-CC
   Nicolas Foglia         : Exact transition moments, OPA infrastructure, MCD improvements
   Dmitry Ganyushin       : Spin-Orbit,Spin-Spin,Magnetic field MRCI
   Miquel Garcia          : C-PCM and meta-GGA Hessian, CCSD/C-PCM, Gaussian charge scheme
   Tiago L. C. Gouveia    : GS-ROHF, GS-ROCIS
   Yang Guo               : DLPNO-NEVPT2, F12-NEVPT2, CIM, IAO-localization
   Andreas Hansen         : Spin unrestricted coupled pair/coupled cluster methods
   Ingolf Harden          : AUTO-CI MPn and infrastructure 
   Benjamin Helmich-Paris : MC-RPA, TRAH-(SCF,CASSCF), AVAS, COSX integrals, SCF dyn. polar.
   Lee Huntington         : MR-EOM, pCC
   Robert Izsak           : Overlap fitted RIJCOSX, COSX-SCS-MP3, EOM
   Riya Kayal             : Wick's Theorem for AUTO-CI, AUTO-CI UHF-CCSDT
   Emily Kempfer          : AUTO-CI, RHF CISDT and CCSDT
   Christian Kollmar      : KDIIS, OOCD, Brueckner-CCSD(T), CCSD density, CASPT2, CASPT2-K, improved NEVPT2
   Axel Koslowski         : Symmetry handling
   Simone Kossmann        : Meta GGA functionals, TD-DFT gradient, OOMP2, (MP2 Hessian; deprecated post 5.0)
   Lucas Lang             : DCDCAS
   Marvin Lechner         : AUTO-CI (C++ implementation), FIC-MRCC
   Spencer Leger          : CASSCF response
   Dagmar Lenk            : GEPOL surface, SMD, ORCA-2-JSON
   Dimitrios Liakos       : Extrapolation schemes; Compound Job, initial MDCI parallelization
   Dimitrios Manganas     : Further ROCIS development; embedding schemes. LFT, Crystal Embedding
   Dimitrios Pantazis     : SARC Basis sets
   Anastasios Papadopoulos: AUTO-CI, single reference methods and gradients
   Taras Petrenko         : pre 6.0 DFT Hessian and TD-DFT gradient, (ASA, deprecated), ECA, 1-Electron XAS/XES, NRVS
   Peter Pinski           : DLPNO-MP2, DLPNO-MP2 Gradient
   Christoph Reimann      : Effective Core Potentials
   Marius Retegan         : Local ZFS, SOC
   Christoph Riplinger    : Optimizer, TS searches, QM/MM, DLPNO-CCSD(T), (RO)-DLPNO pert. Triples
   Michael Roemelt        : Original ROCIS implementation
   Masaaki Saitow         : Open-shell DLPNO-CCSD energy and density
   Barbara Sandhoefer     : DKH picture change effects
   Kantharuban Sivalingam : CASSCF convergence/infrastructure, NEVPT2 and variants, FIC-MRCI
   Bernardo de Souza      : ESD, SOC TD-DFT
   Georgi Stoychev        : AutoAux, RI-MP2 NMR, DLPNO-MP2 response, X2C
   Van Anh Tran           : RI-MP2 g-tensors
   Willem Van den Heuvel  : Paramagnetic NMR
   Zikuan Wang            : NOTCH, Electric field optimization 
   Frank Wennmohs         : Technical directorship and infrastructure
   Hang Xu                : AUTO-CI-Response properties 


 We gratefully acknowledge several colleagues who have allowed us to
 interface, adapt or use parts of their codes:
   Stefan Grimme, W. Hujo, H. Kruse, P. Pracht,  : VdW corrections, initial TS optimization,
                  C. Bannwarth, S. Ehlert,         DFT functionals, gCP, sTDA/sTD-DF
                  L. Wittmann, M. Mueller
   Ed Valeev, F. Pavosevic, A. Kumar             : LibInt (2-el integral package), F12 methods
   Garnet Chan, S. Sharma, J. Yang, R. Olivares  : DMRG
   Ulf Ekstrom                                   : XCFun DFT Library
   Mihaly Kallay                                 : mrcc  (arbitrary order and MRCC methods)
   Frank Weinhold                                : gennbo (NPA and NBO analysis)
   Simon Mueller                                 : openCOSMO-RS
   Christopher J. Cramer and Donald G. Truhlar   : smd solvation model
   Lars Goerigk                                  : TD-DFT with DH, B97 family of functionals
   V. Asgeirsson, H. Jonsson                     : NEB implementation
   FAccTs GmbH                                   : IRC, NEB, NEB-TS, DLPNO-Multilevel, CI-OPT
                                                   MM, QMMM, 2- and 3-layer-ONIOM, Crystal-QMMM,
                                                   LR-CPCM, SF, NACMEs, symmetry and pop. for TD-DFT,
                                                   nearIR, NL-DFT gradient (VV10), updates on ESD,
                                                   ML-optimized integration grids, MBIS, APM,
                                                   GOAT, DOCKER, SOLVATOR, interface openCOSMO-RS
   S Lehtola, MJT Oliveira, MAL Marques          : LibXC Library
   Liviu Ungur et al                             : ANISO software


 Your calculation uses the libint2 library for the computation of 2-el integrals
 For citations please refer to: http://libint.valeyev.net

 Your ORCA version has been built with support for libXC version: 6.2.2
 For citations please refer to: https://libxc.gitlab.io

 This ORCA versions uses:
   CBLAS   interface :  Fast vector & matrix operations
   LAPACKE interface :  Fast linear algebra routines
   SCALAPACK package :  Parallel linear algebra routines
   Shared memory     :  Shared parallel matrices
   BLAS/LAPACK       :  OpenBLAS 0.3.27  USE64BITINT DYNAMIC_ARCH NO_AFFINITY Zen SINGLE_THREADED
        Core in use  :  Zen
   Copyright (c) 2011-2014, The OpenBLAS Project


Your calculation utilizes the atom-pairwise dispersion correction
with the Becke-Johnson damping scheme (D3BJ)


Warning: RI is on but no J-basis has been assigned. Assigning Def2/J (nothing to worry about!)
================================================================================

----- Orbital basis set information -----
Your calculation utilizes the basis: def2-TZVPPD
   F. Weigend and R. Ahlrichs, Phys. Chem. Chem. Phys. 7, 3297 (2005).
   D. Rappoport and F. Furche, J. Chem. Phys. 133, 134105 (2010)
   D. Rappoport, J. Chem. Phys. 155, 124102 (2021).

----- AuxJ basis set information -----
Your calculation utilizes the auxiliary basis: def2/J
   F. Weigend, Phys. Chem. Chem. Phys. 8, 1057 (2006).

================================================================================
                                        WARNINGS
                       Please study these warnings very carefully!
================================================================================

Using LibXC functional ID 531 : wB97M-V exchange-correlation functional
[ 1]  N. Mardirossian and M. Head-Gordon.,  J. Chem. Phys. 144, 214110 (2016)
Using LibXC functional ID 531 : wB97M-V exchange-correlation functional
[ 1]  N. Mardirossian and M. Head-Gordon.,  J. Chem. Phys. 144, 214110 (2016)

WARNING: B97M-V or wB97M-V functional requested.
  ===> : libXC variant has now been activated.
         Any manually given DFX/HFX/RangeSep scaling parameters are IGNORED!

Your calculation utilizes LibXC
 by S Lehtola, C Steigemann, MJT Oliveira & MAL Marques
Please cite in your paper:
 S Lehtola, C Steigemann, MJT Oliveira & MAL Marques, SoftwareX, 7, (2018), 1.
   

INFO   : Checking CIS options ...

WARNING: CIS/ROCIS methods need fully converged wavefunctions
  ===> : Setting SCFConvForced true
         You can overwrite this default with %scf ConvForced false 


================================================================================
                                       INPUT FILE
================================================================================
NAME = orca.inp
|  1> ! ENGRAD wB97M-D3BJ def2-TZVPPD 
|  2> %pal nprocs 8 end%pal nprocs 16 end 
|  3> %tddft nroots 4 Iroot 1 end 
|  4> *xyz 0 1 
|  5> O   1.01938759387724 1.17589305844042 -0.07019459730579
|  6> C   0.88932630422145 0.03801817430623 0.30850200961814
|  7> C   -0.30965188352343 -0.71175631970393 -0.21663192713744
|  8> H   1.5964917983244 -0.44665548331832 1.00025459203701
|  9> H   0.00386149166477 -1.60854484928809 -0.75401704323402
| 10> H   -0.86552200448916 -0.0540496910661 -0.87432706680187
| 11> H   -0.94276217548356 -1.04793605889702 0.60641403282397
| 12> *
| 13> 
| 14>                          ****END OF INPUT****
================================================================================

                     *******************************
                     * Energy+Gradient Calculation *
                     *******************************

---------------------------------
CARTESIAN COORDINATES (ANGSTROEM)
---------------------------------
  O      1.019388    1.175893   -0.070195
  C      0.889326    0.038018    0.308502
  C     -0.309652   -0.711756   -0.216632
  H      1.596492   -0.446655    1.000255
  H      0.003861   -1.608545   -0.754017
  H     -0.865522   -0.054050   -0.874327
  H     -0.942762   -1.047936    0.606414

----------------------------
CARTESIAN COORDINATES (A.U.)
----------------------------
  NO LB      ZA    FRAG     MASS         X           Y           Z
   0 O     8.0000    0    15.999    1.926363    2.222116   -0.132649
   1 C     6.0000    0    12.011    1.680583    0.071844    0.582984
   2 C     6.0000    0    12.011   -0.585157   -1.345025   -0.409375
   3 H     1.0000    0     1.008    3.016932   -0.844057    1.890207
   4 H     1.0000    0     1.008    0.007297   -3.039709   -1.424886
   5 H     1.0000    0     1.008   -1.635600   -0.102139   -1.652239
   6 H     1.0000    0     1.008   -1.781562   -1.980312    1.145956

--------------------------------
INTERNAL COORDINATES (ANGSTROEM)
--------------------------------
 O      0   0   0     0.000000000000     0.00000000     0.00000000
 C      1   0   0     1.206269584755     0.00000000     0.00000000
 C      2   1   0     1.508468142882   116.44068195     0.00000000
 H      2   1   3     1.101595763303   122.88488342   179.99146031
 H      3   2   1     1.091468307473   110.57786827   121.10108980
 H      3   2   1     1.083573946473   108.50282412     0.00000000
 H      3   2   1     1.091444048515   110.58735834   238.87654125

---------------------------
INTERNAL COORDINATES (A.U.)
---------------------------
 O      0   0   0     0.000000000000     0.00000000     0.00000000
 C      1   0   0     2.279519158867     0.00000000     0.00000000
 C      2   1   0     2.850591671791   116.44068195     0.00000000
 H      2   1   3     2.081714302932   122.88488342   179.99146031
 H      3   2   1     2.062576184978   110.57786827   121.10108980
 H      3   2   1     2.047658004686   108.50282412     0.00000000
 H      3   2   1     2.062530342191   110.58735834   238.87654125

---------------------
BASIS SET INFORMATION
---------------------
There are 3 groups of distinct atoms

 Group   1 Type O   : 12s7p3d1f contracted to 6s4p3d1f pattern {621111/4111/111/1}
 Group   2 Type C   : 12s6p3d1f contracted to 6s3p3d1f pattern {621111/411/111/1}
 Group   3 Type H   : 5s3p1d contracted to 3s3p1d pattern {311/111/1}

Atom   0O    basis set group =>   1
Atom   1C    basis set group =>   2
Atom   2C    basis set group =>   2
Atom   3H    basis set group =>   3
Atom   4H    basis set group =>   3
Atom   5H    basis set group =>   3
Atom   6H    basis set group =>   3
---------------------------------
AUXILIARY/J BASIS SET INFORMATION
---------------------------------
There are 3 groups of distinct atoms

 Group   1 Type O   : 12s5p4d2f1g contracted to 6s4p3d1f1g pattern {711111/2111/211/2/1}
 Group   2 Type C   : 12s5p4d2f1g contracted to 6s4p3d1f1g pattern {711111/2111/211/2/1}
 Group   3 Type H   : 5s2p1d contracted to 3s1p1d pattern {311/2/1}

Atom   0O    basis set group =>   1
Atom   1C    basis set group =>   2
Atom   2C    basis set group =>   2
Atom   3H    basis set group =>   3
Atom   4H    basis set group =>   3
Atom   5H    basis set group =>   3
Atom   6H    basis set group =>   3
[1741191786.251994] [ohm:212312:0]        ib_iface.c:1059 UCX  ERROR ibv_create_cq(cqe=256) failed: Connection timed out
[1741191786.251994] [ohm:212314:0]        ib_iface.c:1059 UCX  ERROR ibv_create_cq(cqe=256) failed: Connection timed out
[1741191786.252318] [ohm:212310:0]        ib_iface.c:1059 UCX  ERROR ibv_create_cq(cqe=256) failed: Connection timed out
[1741191786.267654] [ohm:212311:0]        ib_iface.c:1059 UCX  ERROR ibv_create_cq(cqe=256) failed: Connection timed out
[1741191786.268383] [ohm:212313:0]        ib_iface.c:1059 UCX  ERROR ibv_create_cq(cqe=256) failed: Connection timed out
[1741191786.272899] [ohm:212317:0]        ib_iface.c:1059 UCX  ERROR ibv_create_cq(cqe=256) failed: Connection timed out
[1741191786.275753] [ohm:212318:0]        ib_iface.c:1059 UCX  ERROR ibv_create_cq(cqe=256) failed: Connection timed out
[1741191786.277195] [ohm:212322:0]        ib_iface.c:1059 UCX  ERROR ibv_create_cq(cqe=256) failed: Connection timed out
[1741191786.277555] [ohm:212316:0]        ib_iface.c:1059 UCX  ERROR ibv_create_cq(cqe=256) failed: Connection timed out
[1741191786.278157] [ohm:212331:0]        ib_iface.c:1059 UCX  ERROR ibv_create_cq(cqe=256) failed: Connection timed out
[1741191786.280211] [ohm:212315:0]        ib_iface.c:1059 UCX  ERROR ibv_create_cq(cqe=256) failed: Connection timed out
[1741191786.286434] [ohm:212327:0]        ib_iface.c:1059 UCX  ERROR ibv_create_cq(cqe=256) failed: Connection timed out
[1741191786.292207] [ohm:212335:0]        ib_iface.c:1059 UCX  ERROR ibv_create_cq(cqe=256) failed: Connection timed out
[1741191786.293481] [ohm:212320:0]        ib_iface.c:1059 UCX  ERROR ibv_create_cq(cqe=256) failed: Connection timed out
[1741191786.300386] [ohm:212339:0]        ib_iface.c:1059 UCX  ERROR ibv_create_cq(cqe=256) failed: Connection timed out
[1741191786.301994] [ohm:212324:0]        ib_iface.c:1059 UCX  ERROR ibv_create_cq(cqe=256) failed: Connection timed out


           ************************************************************
           *        Program running with 16 parallel MPI-processes    *
           *              working on a common directory               *
           ************************************************************
------------------------------------------------------------------------------
                             ORCA STARTUP CALCULATIONS
                           -- RI-GTO INTEGRALS CHOSEN --
------------------------------------------------------------------------------
------------------------------------------------------------------------------
                   ___                                                        
                  /   \      - P O W E R E D   B Y -                         
                 /     \                                                     
                 |  |  |   _    _      __       _____    __    __             
                 |  |  |  | |  | |    /  \     |  _  \  |  |  /  |          
                  \  \/   | |  | |   /    \    | | | |  |  | /  /          
                 / \  \   | |__| |  /  /\  \   | |_| |  |  |/  /          
                |  |  |   |  __  | /  /__\  \  |    /   |      \           
                |  |  |   | |  | | |   __   |  |    \   |  |\   \          
                \     /   | |  | | |  |  |  |  | |\  \  |  | \   \       
                 \___/    |_|  |_| |__|  |__|  |_| \__\ |__|  \__/        
                                                                              
                      - O R C A' S   B I G   F R I E N D -                    
                                      &                                       
                       - I N T E G R A L  F E E D E R -                       
                                                                              
 v1 FN, 2020, v2 2021, v3 2022-2024                                           
------------------------------------------------------------------------------


----------------------
SHARK INTEGRAL PACKAGE
----------------------

Number of atoms                             ...      7
Number of basis functions                   ...    182
Number of shells                            ...     68
Maximum angular momentum                    ...      3
Integral batch strategy                     ... SHARK/LIBINT Hybrid
RI-J (if used) integral strategy            ... SPLIT-RIJ (Revised 2003 algorithm where possible)
Printlevel                                  ...      1
Contraction scheme used                     ... SEGMENTED contraction
Prescreening option                         ... SCHWARTZ
   Thresh                                   ... 2.500e-11
   Tcut                                     ... 2.500e-12
   Tpresel                                  ... 2.500e-12 
Coulomb Range Separation                    ... NOT USED
Exchange Range Separation                   ... Long Range
   Mu parameter                             ... 3.000e-01
   Scaling (regular/separated)              ... 1.500e-01 8.500e-01
Multipole approximations                    ... NOT USED
Finite Nucleus Model                        ... NOT USED
CABS basis                                  ... NOT available
Auxiliary Coulomb fitting basis             ... AVAILABLE
   # of basis functions in Aux-J            ...    191
   # of shells in Aux-J                     ...     65
   Maximum angular momentum in Aux-J        ...      4
Auxiliary J/K fitting basis                 ... NOT available
Auxiliary Correlation fitting basis         ... NOT available
Auxiliary 'external' fitting basis          ... NOT available

Checking pre-screening integrals            ... done (  0.0 sec) Dimension = 68
Check shell pair data                       ... done (  0.0 sec)
Shell pair information
Shell pair cut-off parameter TPreSel        ...   2.5e-12
Total number of shell pairs                 ...      2346
Shell pairs after pre-screening             ...      2329
Total number of primitive shell pairs       ...      5434
Primitive shell pairs kept                  ...      4827
          la=0 lb=0:    455 shell pairs
          la=1 lb=0:    656 shell pairs
          la=1 lb=1:    253 shell pairs
          la=2 lb=0:    387 shell pairs
          la=2 lb=1:    286 shell pairs
          la=2 lb=2:     91 shell pairs
          la=3 lb=0:     90 shell pairs
          la=3 lb=1:     66 shell pairs
          la=3 lb=2:     39 shell pairs
          la=3 lb=3:      6 shell pairs

Calculating one electron integrals          ... done (  0.0 sec)
Calculating RI/J V-Matrix + Cholesky decomp.... done (  0.0 sec)
Calculating Nuclear repulsion               ... done (  0.0 sec) ENN=     70.251908194780 Eh

Diagonalization of the overlap matrix:
Smallest eigenvalue                        ... 1.563e-05
Time for diagonalization                   ...    0.003 sec
Threshold for overlap eigenvalues          ... 1.000e-07
Number of eigenvalues below threshold      ... 0
Time for construction of square roots      ...    0.002 sec
Total time needed                          ...    0.006 sec

-------------------
DFT GRID GENERATION
-------------------

General Integration Accuracy     IntAcc      ... 4.388
Radial Grid Type                 RadialGrid  ... OptM3 with GC (2021)
Angular Grid (max. ang.)         AngularGrid ... 4 (Lebedev-302)
Angular grid pruning method      GridPruning ... 4 (adaptive)
Weight generation scheme         WeightScheme... mBecke (2022)
Basis function cutoff            BFCut       ... 1.0000e-11
Integration weight cutoff        WCut        ... 1.0000e-14
Partially contracted basis set               ... off
Rotationally invariant grid construction     ... off
Angular grids for H and He will be reduced by one unit
Diffuse basis detected: some atoms will have their outermost
                        angular grid increased by 1.

Total number of grid points                  ...    33136
Total number of batches                      ...      520
Average number of points per batch           ...       63
Average number of grid points per atom       ...     4734

--------------------
COSX GRID GENERATION
--------------------

GRIDX 1
-------
General Integration Accuracy     IntAcc      ... 3.816
Radial Grid Type                 RadialGrid  ... OptM3 with GC (2021)
Angular Grid (max. ang.)         AngularGrid ... 1 (Lebedev-50)
Angular grid pruning method      GridPruning ... 4 (adaptive)
Weight generation scheme         WeightScheme... mBecke (2022)
Basis function cutoff            BFCut       ... 1.0000e-11
Integration weight cutoff        WCut        ... 1.0000e-14
Partially contracted basis set               ... on
Rotationally invariant grid construction     ... off
Angular grids for H and He will be reduced by one unit
Diffuse basis detected: some atoms will have their outermost
                        angular grid increased by 1.

Total number of grid points                  ...     4173
Total number of batches                      ...       36
Average number of points per batch           ...      115
Average number of grid points per atom       ...      596
UseSFitting                                  ... on

GRIDX 2
-------
General Integration Accuracy     IntAcc      ... 4.020
Radial Grid Type                 RadialGrid  ... OptM3 with GC (2021)
Angular Grid (max. ang.)         AngularGrid ... 2 (Lebedev-110)
Angular grid pruning method      GridPruning ... 4 (adaptive)
Weight generation scheme         WeightScheme... mBecke (2022)
Basis function cutoff            BFCut       ... 1.0000e-11
Integration weight cutoff        WCut        ... 1.0000e-14
Partially contracted basis set               ... on
Rotationally invariant grid construction     ... off
Angular grids for H and He will be reduced by one unit
Diffuse basis detected: some atoms will have their outermost
                        angular grid increased by 1.

Total number of grid points                  ...    10304
Total number of batches                      ...       84
Average number of points per batch           ...      122
Average number of grid points per atom       ...     1472
UseSFitting                                  ... on

GRIDX 3
-------
General Integration Accuracy     IntAcc      ... 4.338
Radial Grid Type                 RadialGrid  ... OptM3 with GC (2021)
Angular Grid (max. ang.)         AngularGrid ... 3 (Lebedev-194)
Angular grid pruning method      GridPruning ... 4 (adaptive)
Weight generation scheme         WeightScheme... mBecke (2022)
Basis function cutoff            BFCut       ... 1.0000e-11
Integration weight cutoff        WCut        ... 1.0000e-14
Partially contracted basis set               ... on
Rotationally invariant grid construction     ... off
Angular grids for H and He will be reduced by one unit
Diffuse basis detected: some atoms will have their outermost
                        angular grid increased by 1.

Total number of grid points                  ...    23165
Total number of batches                      ...      185
Average number of points per batch           ...      125
Average number of grid points per atom       ...     3309
UseSFitting                                  ... on
Initializing property integral containers    ... done (  0.0 sec)

SHARK setup successfully completed in   0.3 seconds

Maximum memory used throughout the entire STARTUP-calculation: 13.8 MB
[1741191787.430670] [ohm:212396:0]        ib_iface.c:1059 UCX  ERROR ibv_create_cq(cqe=256) failed: Connection timed out
[1741191787.441308] [ohm:212398:0]        ib_iface.c:1059 UCX  ERROR ibv_create_cq(cqe=256) failed: Connection timed out
[1741191787.448390] [ohm:212394:0]        ib_iface.c:1059 UCX  ERROR ibv_create_cq(cqe=256) failed: Connection timed out
[1741191787.450306] [ohm:212395:0]        ib_iface.c:1059 UCX  ERROR ibv_create_cq(cqe=256) failed: Connection timed out
[1741191787.450408] [ohm:212393:0]        ib_iface.c:1059 UCX  ERROR ibv_create_cq(cqe=256) failed: Connection timed out
[1741191787.456100] [ohm:212397:0]        ib_iface.c:1059 UCX  ERROR ibv_create_cq(cqe=256) failed: Connection timed out
[1741191787.457336] [ohm:212399:0]        ib_iface.c:1059 UCX  ERROR ibv_create_cq(cqe=256) failed: Connection timed out
[1741191787.457605] [ohm:212400:0]        ib_iface.c:1059 UCX  ERROR ibv_create_cq(cqe=256) failed: Connection timed out
[1741191787.458808] [ohm:212401:0]        ib_iface.c:1059 UCX  ERROR ibv_create_cq(cqe=256) failed: Connection timed out
[1741191787.465297] [ohm:212407:0]        ib_iface.c:1059 UCX  ERROR ibv_create_cq(cqe=256) failed: Connection timed out
[1741191787.465305] [ohm:212403:0]        ib_iface.c:1059 UCX  ERROR ibv_create_cq(cqe=256) failed: Connection timed out
[1741191787.467275] [ohm:212405:0]        ib_iface.c:1059 UCX  ERROR ibv_create_cq(cqe=256) failed: Connection timed out
[1741191787.485280] [ohm:212414:0]        ib_iface.c:1059 UCX  ERROR ibv_create_cq(cqe=256) failed: Connection timed out
[1741191787.486773] [ohm:212418:0]        ib_iface.c:1059 UCX  ERROR ibv_create_cq(cqe=256) failed: Connection timed out
[1741191787.500483] [ohm:212410:0]        ib_iface.c:1059 UCX  ERROR ibv_create_cq(cqe=256) failed: Connection timed out
[1741191787.504518] [ohm:212422:0]        ib_iface.c:1059 UCX  ERROR ibv_create_cq(cqe=256) failed: Connection timed out


           ************************************************************
           *        Program running with 16 parallel MPI-processes    *
           *              working on a common directory               *
           ************************************************************
-------------------------------------------------------------------------------
                                 ORCA GUESS
                   Start orbitals & Density for SCF / CASSCF
-------------------------------------------------------------------------------

------------
SCF SETTINGS
------------
Hamiltonian:
 Density Functional     Method          .... DFT(GTOs)
  Functional kind                       .... Exchange-Correlation
  Functional name                       .... wB97M-V exchange-correlation functional
  Functional family                     .... Hybrid MGGA
  Functional refs                              
    [ 0] N. Mardirossian and M. Head-Gordon.,  J. Chem. Phys. 144, 214110 (2016), doi: 10.1063/1.4952647
  Fraction of HF Exchange (short range) .... 0.1500
  Fraction of HF Exchange (long range)  .... 1.0000
  Range separation parameter mu         .... 0.3000
  Functional external parameters        .... 17
    Parameter  0 _cx00      =  8.500000e-01 : u^00 coefficient for exchange
    Parameter  1 _cx01      =  1.007000e+00 : u^01 coefficient for exchange
    Parameter  2 _cx10      =  2.590000e-01 : u^10 coefficient for exchange
    Parameter  3 _css00     =  4.430000e-01 : u^00 coefficient for same-spin correlation
    Parameter  4 _css04     = -1.437000e+00 : u^04 coefficient for same-spin correlation
    Parameter  5 _css10     = -4.535000e+00 : u^10 coefficient for same-spin correlation
    Parameter  6 _css20     = -3.390000e+00 : u^20 coefficient for same-spin correlation
    Parameter  7 _css43     =  4.278000e+00 : u^43 coefficient for same-spin correlation
    Parameter  8 _cos00     =  1.000000e+00 : u^00 coefficient for opposite-spin correlation
    Parameter  9 _cos10     =  1.358000e+00 : u^10 coefficient for opposite-spin correlation
    Parameter 10 _cos20     =  2.924000e+00 : u^20 coefficient for opposite-spin correlation
    Parameter 11 _cos21     = -8.812000e+00 : u^21 coefficient for opposite-spin correlation
    Parameter 12 _cos60     = -1.390000e+00 : u^60 coefficient for opposite-spin correlation
    Parameter 13 _cos61     =  9.142000e+00 : u^61 coefficient for opposite-spin correlation
    Parameter 14 _alpha     =  1.000000e+00 : fraction of HF exchange
    Parameter 15 _beta      = -8.500000e-01 : fraction of short-range exchange
    Parameter 16 _omega     =  3.000000e-01 : range-separation constant
 Long-range corrected/Screened/Range-Separated Hybrid DFT is turned on
   Amount of maximum screened exact exchange              ....  0.850000
   Range separation parameter mu (erf(mu*r12)/r12)        ....  0.300000
 RI-approximation to the Coulomb term is turned on
   Number of AuxJ basis functions       .... 191
   RIJ-COSX (HFX calculated with COS-X)).... on


General Settings:
 Integral files         IntName         .... orca
 Hartree-Fock type      HFTyp           .... RHF
 Total Charge           Charge          ....    0
 Multiplicity           Mult            ....    1
 Number of Electrons    NEL             ....   24
 Basis Dimension        Dim             ....  182
 Nuclear Repulsion      ENuc            ....     70.2519081948 Eh

Convergence Acceleration:
 AO-DIIS                CNVDIIS         .... on
   Start iteration      DIISMaxIt       ....    12
   Startup error        DIISStart       ....  0.200000
   # of expansion vecs  DIISMaxEq       ....     5
   Bias factor          DIISBfac        ....   1.050
   Max. coefficient     DIISMaxC        ....  10.000
 MO-DIIS                CNVKDIIS        .... off
 Trust-Rad. Augm. Hess. CNVTRAH         .... auto
   Auto Start mean grad. ratio tolernc. ....  1.125000
   Auto Start start iteration           ....    50
   Auto Start num. interpolation iter.  ....    10
   Max. Number of Micro iterations      ....    24
   Max. Number of Macro iterations      .... Maxiter - #DIIS iter
   Number of Davidson start vectors     ....     2
   Converg. threshold    (grad. norm)   ....   1.000e-05
   Grad. Scal. Fac. for Micro threshold ....   0.100
   Minimum threshold for Micro iter.    ....   1.000e-02
   NR start threshold (gradient norm)   ....   1.000e-04
   Initial trust radius                 ....   0.400
   Minimum AH scaling param. (alpha)    ....   1.000
   Maximum AH scaling param. (alpha)    .... 1000.000
   Quad. conv. algorithm                .... NR
   White noise on init. David. guess    .... on
   Maximum white noise                  ....   0.010
   Pseudo random numbers                .... off
   Inactive MOs                         .... canonical
   Orbital update algorithm             .... Taylor
   Preconditioner                       .... Diag
   Full preconditioner red. dimension   ....   250
 SOSCF                  CNVSOSCF        .... on
   Start iteration      SOSCFMaxIt      ....   150
   Startup grad/error   SOSCFStart      ....  0.003300
   Hessian update       SOSCFHessUp     .... L-BFGS
 Level Shifting         CNVShift        .... on
   Level shift para.    LevelShift      ....    0.2500
   Turn off err/grad.   ShiftErr        ....    0.0010
 Zerner damping         CNVZerner       .... off
 Static damping         CNVDamp         .... on
   Fraction old density DampFac         ....    0.7000
   Max. Damping (<1)    DampMax         ....    0.9800
   Min. Damping (>=0)   DampMin         ....    0.0000
   Turn off err/grad.   DampErr         ....    0.1000

SCF Procedure:
 Maximum # iterations   MaxIter         ....   125
 SCF integral mode      SCFMode         .... Direct
   Integral package                     .... SHARK and LIBINT hybrid scheme
 Reset frequency        DirectResetFreq ....    20
 Integral Threshold     Thresh          ....  2.500e-11 Eh
 Primitive CutOff       TCut            ....  2.500e-12 Eh

Convergence Tolerance:
 Convergence Check Mode ConvCheckMode   .... Total+1el-Energy
 Convergence forced     ConvForced      .... 1
 Energy Change          TolE            ....  1.000e-08 Eh
 1-El. energy change                    ....  1.000e-05 Eh
 Orbital Gradient       TolG            ....  1.000e-05
 Orbital Rotation angle TolX            ....  1.000e-05
 DIIS Error             TolErr          ....  5.000e-07

------------------------------
INITIAL GUESS: MODEL POTENTIAL
------------------------------
Loading Hartree-Fock densities                     ... done
Calculating cut-offs                               ... done
Initializing the effective Hamiltonian             ... done
Setting up the integral package (SHARK)            ... done
Starting the Coulomb interaction                   ... done (   0.0 sec)
Making the grid                                    ... done (   0.0 sec)
Mapping shells                                     ... done
Starting the XC term evaluation                    ... done (   0.0 sec)
  promolecular density results
     # of electrons  =     23.997408919
     EX              =    -19.519154908
     EC              =     -0.771864807
     EX+EC           =    -20.291019715
Transforming the Hamiltonian                       ... done (   0.0 sec)
Diagonalizing the Hamiltonian                      ... done (   0.0 sec)
Back transforming the eigenvectors                 ... done (   0.0 sec)
Now organizing SCF variables                       ... done
                      ------------------
                      INITIAL GUESS DONE (   0.1 sec)
                      ------------------
             **** ENERGY FILE WAS UPDATED (orca.en.tmp) ****
Finished Guess after   0.6 sec
Maximum memory used throughout the entire GUESS-calculation: 9.7 MB
[1741191788.524607] [ohm:212479:0]        ib_iface.c:1059 UCX  ERROR ibv_create_cq(cqe=256) failed: Connection timed out
[1741191788.524604] [ohm:212481:0]        ib_iface.c:1059 UCX  ERROR ibv_create_cq(cqe=256) failed: Connection timed out
[1741191788.531464] [ohm:212480:0]        ib_iface.c:1059 UCX  ERROR ibv_create_cq(cqe=256) failed: Connection timed out
[1741191788.531464] [ohm:212482:0]        ib_iface.c:1059 UCX  ERROR ibv_create_cq(cqe=256) failed: Connection timed out
[1741191788.533976] [ohm:212478:0]        ib_iface.c:1059 UCX  ERROR ibv_create_cq(cqe=256) failed: Connection timed out
[1741191788.539835] [ohm:212489:0]        ib_iface.c:1059 UCX  ERROR ibv_create_cq(cqe=256) failed: Connection timed out
[1741191788.540225] [ohm:212477:0]        ib_iface.c:1059 UCX  ERROR ibv_create_cq(cqe=256) failed: Connection timed out
[1741191788.540226] [ohm:212483:0]        ib_iface.c:1059 UCX  ERROR ibv_create_cq(cqe=256) failed: Connection timed out
[1741191788.542228] [ohm:212476:0]        ib_iface.c:1059 UCX  ERROR ibv_create_cq(cqe=256) failed: Connection timed out
[1741191788.544354] [ohm:212495:0]        ib_iface.c:1059 UCX  ERROR ibv_create_cq(cqe=256) failed: Connection timed out
[1741191788.549068] [ohm:212486:0]        ib_iface.c:1059 UCX  ERROR ibv_create_cq(cqe=256) failed: Connection timed out
[1741191788.550706] [ohm:212484:0]        ib_iface.c:1059 UCX  ERROR ibv_create_cq(cqe=256) failed: Connection timed out
[1741191788.552185] [ohm:212504:0]        ib_iface.c:1059 UCX  ERROR ibv_create_cq(cqe=256) failed: Connection timed out
[1741191788.555039] [ohm:212488:0]        ib_iface.c:1059 UCX  ERROR ibv_create_cq(cqe=256) failed: Connection timed out
[1741191788.556981] [ohm:212491:0]        ib_iface.c:1059 UCX  ERROR ibv_create_cq(cqe=256) failed: Connection timed out
[1741191788.561072] [ohm:212499:0]        ib_iface.c:1059 UCX  ERROR ibv_create_cq(cqe=256) failed: Connection timed out


           ************************************************************
           *        Program running with 16 parallel MPI-processes    *
           *              working on a common directory               *
           ************************************************************

-------------------------------------------------------------------------------------------
                                      ORCA LEAN-SCF
                              memory conserving SCF solver
-------------------------------------------------------------------------------------------

----------------------------------------D-I-I-S--------------------------------------------
Iteration    Energy (Eh)           Delta-E    RMSDP     MaxDP     DIISErr   Damp  Time(sec)
-------------------------------------------------------------------------------------------
               ***  Starting incremental Fock matrix formation  ***
    1    -153.7921688017324868     0.00e+00  1.93e-03  4.92e-02  2.61e-01  0.700   0.3
    2    -153.8489287644642900    -5.68e-02  1.64e-03  4.70e-02  1.25e-01  0.700   0.2
                               ***Turning on AO-DIIS***
    3    -153.8742636582501291    -2.53e-02  1.22e-03  4.22e-02  5.75e-02  0.700   0.2
    4    -153.8895129238438244    -1.52e-02  3.00e-03  1.03e-01  3.40e-02  0.000   0.2
    5    -153.9231276205781000    -3.36e-02  2.05e-04  8.06e-03  5.25e-03  0.000   0.2
                              *** Initializing SOSCF ***
---------------------------------------S-O-S-C-F--------------------------------------
Iteration    Energy (Eh)           Delta-E    RMSDP     MaxDP     MaxGrad    Time(sec)
--------------------------------------------------------------------------------------
    6    -153.9232337730102813    -1.06e-04  9.50e-05  3.62e-03  2.90e-03     0.2
               *** Restarting incremental Fock matrix formation ***
    7    -153.9232571174291593    -2.33e-05  5.25e-05  1.01e-03  6.95e-04     0.3
    8    -153.9232630105066164    -5.89e-06  2.97e-05  6.03e-04  2.90e-04     0.3
    9    -153.9232641142118041    -1.10e-06  4.43e-06  1.05e-04  2.63e-05     0.3
   10    -153.9232641398311330    -2.56e-08  1.48e-06  2.45e-05  1.21e-05     0.3
   11    -153.9232641470287035    -7.20e-09  7.50e-07  2.93e-05  2.22e-06     0.3
                 **** Energy Check signals convergence ****

               *****************************************************
               *                     SUCCESS                       *
               *           SCF CONVERGED AFTER  11 CYCLES          *
               *****************************************************

Recomputing exchange energy using gridx3       ... done (    0.472 sec)
Old exchange energy                            :     -6.199537014 Eh
New exchange energy                            :     -6.199545410 Eh
Exchange energy change after final integration :     -0.000008396 Eh
Total energy after final integration           :   -153.923272543 Eh
             **** ENERGY FILE WAS UPDATED (orca.en.tmp) ****

----------------
TOTAL SCF ENERGY
----------------

Total Energy       :       -153.92327254285144 Eh           -4188.46518 eV

Components:
Nuclear Repulsion  :         70.25190819478046 Eh            1911.65161 eV
Electronic Energy  :       -224.17517234180914 Eh           -6100.11656 eV
One Electron Energy:       -347.15206132538145 Eh           -9446.48784 eV
Two Electron Energy:        122.97688898357231 Eh            3346.37128 eV

Virial components:
Potential Energy   :       -307.33199324558797 Eh           -8362.92870 eV
Kinetic Energy     :        153.40872070273653 Eh            4174.46352 eV
Virial Ratio       :          2.00335412379269

DFT components:
N(Alpha)           :       11.999992579952 electrons
N(Beta)            :       11.999992579952 electrons
N(Total)           :       23.999985159905 electrons
E(XC)              :      -14.752283858914 Eh       

---------------
SCF CONVERGENCE
---------------

  Last Energy change         ...    7.1976e-09  Tolerance :   1.0000e-08
  Last MAX-Density change    ...    2.9340e-05  Tolerance :   1.0000e-07
  Last RMS-Density change    ...    7.4988e-07  Tolerance :   5.0000e-09
  Last DIIS Error            ...    2.8995e-03  Tolerance :   5.0000e-07
  Last Orbital Gradient      ...    2.2170e-06  Tolerance :   1.0000e-05
  Last Orbital Rotation      ...    4.1217e-06  Tolerance :   1.0000e-05


----------------
ORBITAL ENERGIES
----------------

  NO   OCC          E(Eh)            E(eV) 
   0   2.0000     -19.337310      -526.1949 
   1   2.0000     -10.443291      -284.1764 
   2   2.0000     -10.352759      -281.7129 
   3   2.0000      -1.186608       -32.2892 
   4   2.0000      -0.874710       -23.8021 
   5   2.0000      -0.707849       -19.2615 
   6   2.0000      -0.598753       -16.2929 
   7   2.0000      -0.556576       -15.1452 
   8   2.0000      -0.547709       -14.9039 
   9   2.0000      -0.507292       -13.8041 
  10   2.0000      -0.472424       -12.8553 
  11   2.0000      -0.367585       -10.0025 
  12   0.0000       0.038981         1.0607 
  13   0.0000       0.051547         1.4027 
  14   0.0000       0.058987         1.6051 
  15   0.0000       0.084541         2.3005 
  16   0.0000       0.087001         2.3674 
  17   0.0000       0.112652         3.0654 
  18   0.0000       0.125221         3.4074 
  19   0.0000       0.127189         3.4610 
  20   0.0000       0.136353         3.7103 
  21   0.0000       0.176744         4.8094 
  22   0.0000       0.181406         4.9363 
*Only the first 10 virtual orbitals were printed.

                    ********************************
                    * MULLIKEN POPULATION ANALYSIS *
                    ********************************

-----------------------
MULLIKEN ATOMIC CHARGES
-----------------------
   0 O :   -0.473364
   1 C :    0.242472
   2 C :   -0.691278
   3 H :    0.243899
   4 H :    0.219541
   5 H :    0.239189
   6 H :    0.219540
Sum of atomic charges:   -0.0000000

--------------------------------
MULLIKEN REDUCED ORBITAL CHARGES
--------------------------------
  0 O s       :     4.004612  s :     4.004612
      pz      :     1.453402  p :     4.436210
      px      :     1.678053
      py      :     1.304754
      dz2     :     0.004178  d :     0.030633
      dxz     :     0.001383
      dyz     :     0.010415
      dx2y2   :     0.008448
      dxy     :     0.006208
      f0      :     0.000143  f :     0.001909
      f+1     :     0.000020
      f-1     :     0.000391
      f+2     :     0.000353
      f-2     :     0.000142
      f+3     :     0.000461
      f-3     :     0.000400

  1 C s       :     3.223690  s :     3.223690
      pz      :     0.786537  p :     2.331619
      px      :     0.839468
      py      :     0.705614
      dz2     :     0.013802  d :     0.186697
      dxz     :     0.009787
      dyz     :     0.064394
      dx2y2   :     0.004190
      dxy     :     0.094524
      f0      :     0.000968  f :     0.015521
      f+1     :     0.000604
      f-1     :     0.002713
      f+2     :     0.003011
      f-2     :     0.001599
      f+3     :     0.004429
      f-3     :     0.002198

  2 C s       :     3.376549  s :     3.376549
      pz      :     1.140926  p :     3.257850
      px      :     0.981095
      py      :     1.135829
      dz2     :     0.005775  d :     0.054418
      dxz     :     0.016277
      dyz     :     0.020656
      dx2y2   :     0.001787
      dxy     :     0.009924
      f0      :     0.000136  f :     0.002462
      f+1     :     0.000250
      f-1     :     0.000126
      f+2     :     0.000293
      f-2     :     0.000715
      f+3     :     0.000507
      f-3     :     0.000433

  3 H s       :     0.723828  s :     0.723828
      pz      :     0.011752  p :     0.030012
      px      :     0.011152
      py      :     0.007108
      dz2     :     0.000363  d :     0.002261
      dxz     :     0.000408
      dyz     :     0.000505
      dx2y2   :     0.000619
      dxy     :     0.000366

  4 H s       :     0.732115  s :     0.732115
      pz      :     0.018411  p :     0.046131
      px      :     0.004460
      py      :     0.023260
      dz2     :     0.000386  d :     0.002214
      dxz     :     0.000288
      dyz     :     0.000514
      dx2y2   :     0.000436
      dxy     :     0.000590

  5 H s       :     0.715490  s :     0.715490
      pz      :     0.018213  p :     0.043006
      px      :     0.018215
      py      :     0.006578
      dz2     :     0.000518  d :     0.002315
      dxz     :     0.000405
      dyz     :     0.000433
      dx2y2   :     0.000539
      dxy     :     0.000420

  6 H s       :     0.732079  s :     0.732079
      pz      :     0.010035  p :     0.046165
      px      :     0.015337
      py      :     0.020793
      dz2     :     0.000677  d :     0.002215
      dxz     :     0.000460
      dyz     :     0.000441
      dx2y2   :     0.000296
      dxy     :     0.000341



                     *******************************
                     * LOEWDIN POPULATION ANALYSIS *
                     *******************************

----------------------
LOEWDIN ATOMIC CHARGES
----------------------
   0 O :    0.054992
   1 C :   -0.203019
   2 C :    0.164836
   3 H :    0.023188
   4 H :   -0.014315
   5 H :   -0.011332
   6 H :   -0.014350

-------------------------------
LOEWDIN REDUCED ORBITAL CHARGES
-------------------------------
  0 O s       :     3.365946  s :     3.365946
      pz      :     1.342089  p :     4.320205
      px      :     1.495598
      py      :     1.482518
      dz2     :     0.027845  d :     0.252561
      dxz     :     0.010932
      dyz     :     0.067567
      dx2y2   :     0.062267
      dxy     :     0.083949
      f0      :     0.000545  f :     0.006296
      f+1     :     0.000068
      f-1     :     0.001061
      f+2     :     0.001231
      f-2     :     0.000420
      f+3     :     0.001647
      f-3     :     0.001323

  1 C s       :     2.710980  s :     2.710980
      pz      :     0.724687  p :     2.435611
      px      :     0.821705
      py      :     0.889219
      dz2     :     0.090809  d :     0.955220
      dxz     :     0.110629
      dyz     :     0.227673
      dx2y2   :     0.225810
      dxy     :     0.300300
      f0      :     0.006712  f :     0.101207
      f+1     :     0.004045
      f-1     :     0.016547
      f+2     :     0.020385
      f-2     :     0.009007
      f+3     :     0.030149
      f-3     :     0.014361

  2 C s       :     2.653091  s :     2.653091
      pz      :     0.916514  p :     2.729913
      px      :     0.895234
      py      :     0.918165
      dz2     :     0.036507  d :     0.422361
      dxz     :     0.116176
      dyz     :     0.085991
      dx2y2   :     0.084056
      dxy     :     0.099631
      f0      :     0.004424  f :     0.029799
      f+1     :     0.003797
      f-1     :     0.002568
      f+2     :     0.003177
      f-2     :     0.005221
      f+3     :     0.005382
      f-3     :     0.005231

  3 H s       :     0.718532  s :     0.718532
      pz      :     0.080099  p :     0.231717
      px      :     0.084628
      py      :     0.066989
      dz2     :     0.004131  d :     0.026563
      dxz     :     0.007163
      dyz     :     0.005253
      dx2y2   :     0.004963
      dxy     :     0.005053

  4 H s       :     0.701293  s :     0.701293
      pz      :     0.090993  p :     0.282676
      px      :     0.078090
      py      :     0.113593
      dz2     :     0.005445  d :     0.030346
      dxz     :     0.003329
      dyz     :     0.007933
      dx2y2   :     0.006688
      dxy     :     0.006951

  5 H s       :     0.694225  s :     0.694225
      pz      :     0.096596  p :     0.285646
      px      :     0.088163
      py      :     0.100887
      dz2     :     0.006762  d :     0.031461
      dxz     :     0.006107
      dyz     :     0.006414
      dx2y2   :     0.006102
      dxy     :     0.006076

  6 H s       :     0.701304  s :     0.701304
      pz      :     0.106730  p :     0.282698
      px      :     0.091525
      py      :     0.084444
      dz2     :     0.007983  d :     0.030348
      dxz     :     0.007546
      dyz     :     0.006514
      dx2y2   :     0.003925
      dxy     :     0.004381



                      *****************************
                      * MAYER POPULATION ANALYSIS *
                      *****************************

  NA   - Mulliken gross atomic population
  ZA   - Total nuclear charge
  QA   - Mulliken gross atomic charge
  VA   - Mayer's total valence
  BVA  - Mayer's bonded valence
  FA   - Mayer's free valence

  ATOM       NA         ZA         QA         VA         BVA        FA
  0 O      8.4734     8.0000    -0.4734     1.8114     1.8114    -0.0000
  1 C      5.7575     6.0000     0.2425     3.4735     3.4735    -0.0000
  2 C      6.6913     6.0000    -0.6913     3.7595     3.7595    -0.0000
  3 H      0.7561     1.0000     0.2439     0.9902     0.9902    -0.0000
  4 H      0.7805     1.0000     0.2195     1.0085     1.0085    -0.0000
  5 H      0.7608     1.0000     0.2392     1.0248     1.0248    -0.0000
  6 H      0.7805     1.0000     0.2195     1.0086     1.0086    -0.0000

  Mayer bond orders larger than 0.100000
B(  0-O ,  1-C ) :   1.7718 B(  1-C ,  2-C ) :   0.7766 B(  1-C ,  3-H ) :   0.9815 
B(  2-C ,  4-H ) :   0.9940 B(  2-C ,  5-H ) :   0.9594 B(  2-C ,  6-H ) :   0.9940 


-------
TIMINGS
-------

Total SCF time: 0 days 0 hours 0 min 3 sec 

Total time                  ....       3.859 sec
Sum of individual times     ....       3.843 sec  ( 99.6%)

SCF preparation             ....       0.500 sec  ( 13.0%)
Fock matrix formation       ....       3.045 sec  ( 78.9%)
  Startup                   ....       0.013 sec  (  0.4% of F)
  Split-RI-J                ....       0.146 sec  (  4.8% of F)
  Chain of spheres X        ....       2.210 sec  ( 72.6% of F)
  XC integration            ....       0.630 sec  ( 20.7% of F)
    XC Preparation          ....       0.000 sec  (  0.0% of XC)
    Basis function eval.    ....       0.069 sec  ( 11.0% of XC)
    Density eval.           ....       0.174 sec  ( 27.6% of XC)
    XC-Functional eval.     ....       0.029 sec  (  4.6% of XC)
    XC-Potential eval.      ....       0.281 sec  ( 44.6% of XC)
Diagonalization             ....       0.000 sec  (  0.0%)
Density matrix formation    ....       0.030 sec  (  0.8%)
Total Energy calculation    ....       0.025 sec  (  0.7%)
Population analysis         ....       0.033 sec  (  0.8%)
Orbital Transformation      ....       0.023 sec  (  0.6%)
Orbital Orthonormalization  ....       0.000 sec  (  0.0%)
DIIS solution               ....       0.133 sec  (  3.4%)
SOSCF solution              ....       0.052 sec  (  1.3%)
Finished LeanSCF after   3.9 sec

Maximum memory used throughout the entire LEANSCF-calculation: 13.5 MB
[1741191792.804372] [ohm:212563:0]        ib_iface.c:1059 UCX  ERROR ibv_create_cq(cqe=256) failed: Connection timed out
[1741191792.804674] [ohm:212565:0]        ib_iface.c:1059 UCX  ERROR ibv_create_cq(cqe=256) failed: Connection timed out
[1741191792.810450] [ohm:212561:0]        ib_iface.c:1059 UCX  ERROR ibv_create_cq(cqe=256) failed: Connection timed out
[1741191792.816756] [ohm:212571:0]        ib_iface.c:1059 UCX  ERROR ibv_create_cq(cqe=256) failed: Connection timed out
[1741191792.816800] [ohm:212566:0]        ib_iface.c:1059 UCX  ERROR ibv_create_cq(cqe=256) failed: Connection timed out
[1741191792.816862] [ohm:212564:0]        ib_iface.c:1059 UCX  ERROR ibv_create_cq(cqe=256) failed: Connection timed out
[1741191792.816999] [ohm:212568:0]        ib_iface.c:1059 UCX  ERROR ibv_create_cq(cqe=256) failed: Connection timed out
[1741191792.817384] [ohm:212562:0]        ib_iface.c:1059 UCX  ERROR ibv_create_cq(cqe=256) failed: Connection timed out
[1741191792.819084] [ohm:212567:0]        ib_iface.c:1059 UCX  ERROR ibv_create_cq(cqe=256) failed: Connection timed out
[1741191792.822307] [ohm:212569:0]        ib_iface.c:1059 UCX  ERROR ibv_create_cq(cqe=256) failed: Connection timed out
[1741191792.822643] [ohm:212574:0]        ib_iface.c:1059 UCX  ERROR ibv_create_cq(cqe=256) failed: Connection timed out
[1741191792.846986] [ohm:212573:0]        ib_iface.c:1059 UCX  ERROR ibv_create_cq(cqe=256) failed: Connection timed out
[1741191792.847004] [ohm:212576:0]        ib_iface.c:1059 UCX  ERROR ibv_create_cq(cqe=256) failed: Connection timed out
[1741191792.848041] [ohm:212581:0]        ib_iface.c:1059 UCX  ERROR ibv_create_cq(cqe=256) failed: Connection timed out
[1741191792.848706] [ohm:212590:0]        ib_iface.c:1059 UCX  ERROR ibv_create_cq(cqe=256) failed: Connection timed out
[1741191792.851247] [ohm:212586:0]        ib_iface.c:1059 UCX  ERROR ibv_create_cq(cqe=256) failed: Connection timed out


           ************************************************************
           *        Program running with 16 parallel MPI-processes    *
           *              working on a common directory               *
           ************************************************************

------------------------------------------------------------------------------
                         ORCA PROPERTY INTEGRAL CALCULATIONS
------------------------------------------------------------------------------

GBWName                                   ... orca.gbw
Number of atoms                           ...      7
Number of basis functions                 ...    182
Max core memory                           ...   1024 MB

Dipole integrals                          ... YES
Quadrupole integrals                      ...  NO
Linear momentum integrals                 ... YES
Angular momentum integrals                ... YES
Higher moments length integrals           ...  NO
Higher moments velocity integrals         ...  NO
Kinetic energy integrals                  ...  NO
GIAO right hand sides                     ...  NO
GIAO dipole derivative integrals          ...  NO
SOC integrals                             ...  NO
EPR diamagnetic integrals (GIAO)          ...  NO
EPR gauge integrals                       ...  NO
Field gradient integrals                  ...  NO (   0 nuclei)
Spin-dipole/Fermi contact integrals       ...  NO (   0 nuclei)
Contact density integrals                 ...  NO (   0 nuclei)
Nucleus-orbit integrals                   ...  NO (   0 nuclei)
Geometric perturbations                   ...  NO (   7 nuclei)

Choice of electric origin   ... Center of mass
Position of electric origin ... (  0.9893,  0.3234, -0.0018) 
Choice of magnetic origin   ... GIAO
Position of magnetic origin ... (  0.0000,  0.0000,  0.0000) 

Calculating integrals                     ... Electric Dipole (Length)     done (  0.0 sec)
Calculating integrals                     ... Linear Momentum              done (  0.0 sec)
Calculating integrals                     ... Angular Momentum  (ElOri)    done (  0.0 sec)

Property integrals calculated in   0.0 sec

Maximum memory used throughout the entire PROPINT-calculation: 10.1 MB
[1741191793.755233] [ohm:212649:0]        ib_iface.c:1059 UCX  ERROR ibv_create_cq(cqe=256) failed: Connection timed out
[1741191793.755197] [ohm:212651:0]        ib_iface.c:1059 UCX  ERROR ibv_create_cq(cqe=256) failed: Connection timed out
[1741191793.757617] [ohm:212656:0]        ib_iface.c:1059 UCX  ERROR ibv_create_cq(cqe=256) failed: Connection timed out
[1741191793.770797] [ohm:212647:0]        ib_iface.c:1059 UCX  ERROR ibv_create_cq(cqe=256) failed: Connection timed out
[1741191793.770906] [ohm:212645:0]        ib_iface.c:1059 UCX  ERROR ibv_create_cq(cqe=256) failed: Connection timed out
[1741191793.771343] [ohm:212653:0]        ib_iface.c:1059 UCX  ERROR ibv_create_cq(cqe=256) failed: Connection timed out
[1741191793.772564] [ohm:212662:0]        ib_iface.c:1059 UCX  ERROR ibv_create_cq(cqe=256) failed: Connection timed out
[1741191793.773779] [ohm:212650:0]        ib_iface.c:1059 UCX  ERROR ibv_create_cq(cqe=256) failed: Connection timed out
[1741191793.774278] [ohm:212657:0]        ib_iface.c:1059 UCX  ERROR ibv_create_cq(cqe=256) failed: Connection timed out
[1741191793.775360] [ohm:212646:0]        ib_iface.c:1059 UCX  ERROR ibv_create_cq(cqe=256) failed: Connection timed out
[1741191793.781275] [ohm:212644:0]        ib_iface.c:1059 UCX  ERROR ibv_create_cq(cqe=256) failed: Connection timed out
[1741191793.782327] [ohm:212666:0]        ib_iface.c:1059 UCX  ERROR ibv_create_cq(cqe=256) failed: Connection timed out
[1741191793.782460] [ohm:212652:0]        ib_iface.c:1059 UCX  ERROR ibv_create_cq(cqe=256) failed: Connection timed out
[1741191793.782928] [ohm:212654:0]        ib_iface.c:1059 UCX  ERROR ibv_create_cq(cqe=256) failed: Connection timed out
[1741191793.784441] [ohm:212648:0]        ib_iface.c:1059 UCX  ERROR ibv_create_cq(cqe=256) failed: Connection timed out
[1741191793.903691] [ohm:212672:0]        ib_iface.c:1059 UCX  ERROR ibv_create_cq(cqe=256) failed: Connection timed out


           ************************************************************
           *        Program running with 16 parallel MPI-processes    *
           *              working on a common directory               *
           ************************************************************
------------------------------------------------------------------------------
                        ORCA TD-DFT/TDA CALCULATION
------------------------------------------------------------------------------

Input orbitals are from        ... orca.gbw
CI-vector output               ... orca.cis
Solver                         ... FN-2001
Tamm-Dancoff approximation     ... operative
CIS-Integral strategy          ... AO-integrals
Integral handling              ... AO integral Direct
Max. core memory used          ... 512 MB
Reference state                ... RHF
Generation of triplets         ... off
Follow IRoot                   ... off
Number of operators            ... 1
Orbital ranges used for CIS calculation:
 Operator 0:  Orbitals   3... 11  to  12...181
XAS localization array:
 Operator 0:  Orbitals  -1... -1

-------------------
XC-INTEGRATION GRID
-------------------

General Integration Accuracy     IntAcc      ... 3.467
Radial Grid Type                 RadialGrid  ... OptM3 with GC (2021)
Angular Grid (max. ang.)         AngularGrid ... 1 (Lebedev-50)
Angular grid pruning method      GridPruning ... 4 (adaptive)
Weight generation scheme         WeightScheme... mBecke (2022)
Basis function cutoff            BFCut       ... 1.0000e-11
Integration weight cutoff        WCut        ... 1.0000e-14
Partially contracted basis set               ... off
Rotationally invariant grid construction     ... off
Angular grids for H and He will be reduced by one unit
Diffuse basis detected: some atoms will have their outermost
                        angular grid increased by 1.

Total number of grid points                  ...     4750
Total number of batches                      ...       76
Average number of points per batch           ...       62
Average number of grid points per atom       ...      679

---------------------
COSX-INTEGRATION GRID
---------------------

General Integration Accuracy     IntAcc      ... 3.067
Radial Grid Type                 RadialGrid  ... OptM3 with GC (2021)
Angular Grid (max. ang.)         AngularGrid ... 1 (Lebedev-50)
Angular grid pruning method      GridPruning ... 4 (adaptive)
Weight generation scheme         WeightScheme... mBecke (2022)
Basis function cutoff            BFCut       ... 1.0000e-11
Integration weight cutoff        WCut        ... 1.0000e-14
Partially contracted basis set               ... on
Rotationally invariant grid construction     ... off
Angular grids for H and He will be reduced by one unit
Diffuse basis detected: some atoms will have their outermost
                        angular grid increased by 1.

Total number of grid points                  ...     2158
Total number of batches                      ...       22
Average number of points per batch           ...       98
Average number of grid points per atom       ...      308

---------------
TD-DFT XC SETUP
---------------

DFT calculation                         ... on
Name of the grid file                   ... orca.grid_cis.tmp
RI-approximation                        ... on
Aux-basis dimension                     ... 0
Functional (TD-DFT)
  Functional kind                       .... Exchange-Correlation
  Functional name                       .... wB97M-V exchange-correlation functional
  Functional family                     .... Hybrid MGGA
  Functional refs                              
    [ 0] N. Mardirossian and M. Head-Gordon.,  J. Chem. Phys. 144, 214110 (2016), doi: 10.1063/1.4952647
  Fraction of HF Exchange (short range) .... 0.1500
  Fraction of HF Exchange (long range)  .... 1.0000
  Range separation parameter mu         .... 0.3000
  Functional external parameters        .... 17
    Parameter  0 _cx00      =  8.500000e-01 : u^00 coefficient for exchange
    Parameter  1 _cx01      =  1.007000e+00 : u^01 coefficient for exchange
    Parameter  2 _cx10      =  2.590000e-01 : u^10 coefficient for exchange
    Parameter  3 _css00     =  4.430000e-01 : u^00 coefficient for same-spin correlation
    Parameter  4 _css04     = -1.437000e+00 : u^04 coefficient for same-spin correlation
    Parameter  5 _css10     = -4.535000e+00 : u^10 coefficient for same-spin correlation
    Parameter  6 _css20     = -3.390000e+00 : u^20 coefficient for same-spin correlation
    Parameter  7 _css43     =  4.278000e+00 : u^43 coefficient for same-spin correlation
    Parameter  8 _cos00     =  1.000000e+00 : u^00 coefficient for opposite-spin correlation
    Parameter  9 _cos10     =  1.358000e+00 : u^10 coefficient for opposite-spin correlation
    Parameter 10 _cos20     =  2.924000e+00 : u^20 coefficient for opposite-spin correlation
    Parameter 11 _cos21     = -8.812000e+00 : u^21 coefficient for opposite-spin correlation
    Parameter 12 _cos60     = -1.390000e+00 : u^60 coefficient for opposite-spin correlation
    Parameter 13 _cos61     =  9.142000e+00 : u^61 coefficient for opposite-spin correlation
    Parameter 14 _alpha     =  1.000000e+00 : fraction of HF exchange
    Parameter 15 _beta      = -8.500000e-01 : fraction of short-range exchange
    Parameter 16 _omega     =  3.000000e-01 : range-separation constant
Hybrid DFT                              ... on
   Exchange mixing (TD-DFT)             ...  0.150
   GGA exch. scaling (TD-DFT)           ...  0.000
   GGA corr. scaling (TD-DFT)           ...  1.000
Range-Separated Exchange                ... on
   Range Range separation parameter mu  .... 0.300
   Max. amount of RS exchange (TD-DFT)  ...  0.850

Building densities             ... done
Calculating rho(r) on the grid ... done
Building xc-kernel on the grid ... done
                    *** TD-DFT CALCULATION INITIALIZED ***

------------------------
DAVIDSON-DIAGONALIZATION
------------------------

Dimension of the eigenvalue problem            ...   1530
Number of roots to be determined               ...      4
Maximum size of the expansion space            ...     40
Maximum number of iterations                   ...    100
Convergence tolerance for the residual         ...    2.500e-07
Convergence tolerance for the energies         ...    2.500e-07
Orthogonality tolerance                        ...    1.000e-14
Level Shift                                    ...    0.000e+00
Constructing the preconditioner                ... o.k.
Building the initial guess                     ... o.k.
Number of trial vectors determined             ...     40


                       ****Iteration    0****
   Time for iteration     :  TOTAL=0.4 TRAFO=0.0 RIJ=0.1 COSX=0.2 XC=0.1
   Size of expansion space: 12
   Lowest Energy          :     0.165126464989
   Maximum Energy change  :     0.295306648173 (vector 3)
   Maximum residual norm  :     0.004450469429

                       ****Iteration    1****
   Time for iteration     :  TOTAL=0.2 TRAFO=0.0 RIJ=0.0 COSX=0.1 XC=0.0
   Size of expansion space: 16
   Lowest Energy          :     0.156490056079
   Maximum Energy change  :     0.008636408910 (vector 0)
   Maximum residual norm  :     0.000434417252

                       ****Iteration    2****
   Time for iteration     :  TOTAL=0.2 TRAFO=0.0 RIJ=0.0 COSX=0.1 XC=0.0
   Size of expansion space: 20
   Lowest Energy          :     0.156130181229
   Maximum Energy change  :     0.000437053503 (vector 1)
   Maximum residual norm  :     0.000028880885

                       ****Iteration    3****
   Time for iteration     :  TOTAL=0.2 TRAFO=0.0 RIJ=0.0 COSX=0.1 XC=0.0
   Size of expansion space: 24
   Lowest Energy          :     0.156106709028
   Maximum Energy change  :     0.000039955044 (vector 2)
   Maximum residual norm  :     0.000003733453

                       ****Iteration    4****
   Time for iteration     :  TOTAL=0.2 TRAFO=0.0 RIJ=0.0 COSX=0.1 XC=0.0
   Size of expansion space: 28
   Lowest Energy          :     0.156105512111
   Maximum Energy change  :     0.000005813513 (vector 2)
   Maximum residual norm  :     0.000000648564

                       ****Iteration    5****
   Time for iteration     :  TOTAL=0.2 TRAFO=0.0 RIJ=0.0 COSX=0.1 XC=0.0
   Size of expansion space: 32
   Lowest Energy          :     0.156105452476
   Maximum Energy change  :     0.000000694748 (vector 2)
   Maximum residual norm  :     0.000000110588

      *** CONVERGENCE OF RESIDUAL NORM REACHED ***

Storing the converged CI vectors               ... orca.cis1

                 *** DAVIDSON DONE ***

Total time for solving the CIS problem:     1.558sec

------------------------------------
TD-DFT/TDA EXCITED STATES (SINGLETS)
------------------------------------

the weight of the individual excitations are printed if larger than 1.0e-02

STATE  1:  E=   0.156105 au      4.248 eV    34261.2 cm**-1 <S**2> =   0.000000 Mult 1
    11a ->  13a  :     0.970330 (c=  0.98505316)
    11a ->  25a  :     0.011416 (c=  0.10684534)

STATE  2:  E=   0.246427 au      6.706 eV    54084.4 cm**-1 <S**2> =   0.000000 Mult 1
    11a ->  12a  :     0.824256 (c= -0.90788548)
    11a ->  14a  :     0.097023 (c= -0.31148588)
    11a ->  15a  :     0.020686 (c=  0.14382783)
    11a ->  18a  :     0.014053 (c=  0.11854648)
    11a ->  26a  :     0.014775 (c= -0.12155135)

STATE  3:  E=   0.276142 au      7.514 eV    60606.1 cm**-1 <S**2> =   0.000000 Mult 1
    11a ->  12a  :     0.054585 (c= -0.23363517)
    11a ->  14a  :     0.739096 (c=  0.85970679)
    11a ->  15a  :     0.111167 (c=  0.33341641)
    11a ->  17a  :     0.049354 (c=  0.22215762)
    11a ->  29a  :     0.012185 (c= -0.11038482)

STATE  4:  E=   0.289928 au      7.889 eV    63631.8 cm**-1 <S**2> =   0.000000 Mult 1
    11a ->  16a  :     0.940865 (c= -0.96998188)
    11a ->  19a  :     0.035251 (c= -0.18775143)


-----------------------------
TD-DFT/TDA-EXCITATION SPECTRA
-----------------------------

Center of mass = (  0.9893,  0.3234, -0.0018)
Generating CIS transition densities           ... done

----------------------------------------------------------------------------------------------------
                     ABSORPTION SPECTRUM VIA TRANSITION ELECTRIC DIPOLE MOMENTS    
----------------------------------------------------------------------------------------------------
     Transition      Energy     Energy  Wavelength fosc(D2)      D2        DX        DY        DZ   
                      (eV)      (cm-1)    (nm)                 (au**2)    (au)      (au)      (au)  
----------------------------------------------------------------------------------------------------
  0-1A  ->  1-1A    4.247845   34261.2   291.9   0.000018483   0.00018  -0.00787   0.00435   0.00983
  0-1A  ->  2-1A    6.705613   54084.4   184.9   0.016259190   0.09897  -0.06381  -0.29797   0.07818
  0-1A  ->  3-1A    7.514199   60606.1   165.0   0.061840229   0.33592  -0.41730   0.17366  -0.36280
  0-1A  ->  4-1A    7.889339   63631.8   157.2   0.005896019   0.03050  -0.09638   0.05548   0.13467

----------------------------------------------------------------------------------------------------
                     ABSORPTION SPECTRUM VIA TRANSITION VELOCITY DIPOLE MOMENTS    
----------------------------------------------------------------------------------------------------
     Transition      Energy     Energy  Wavelength fosc(P2)      P2        PX        PY        PZ   
                      (eV)      (cm-1)    (nm)                 (au**2)    (au)      (au)      (au)  
----------------------------------------------------------------------------------------------------
  0-1A  ->  1-1A    4.247845   34261.2   291.9   0.001052582   0.00025   0.00872  -0.00494  -0.01208
  0-1A  ->  2-1A    6.705613   54084.4   184.9   0.012493075   0.00462   0.01800   0.06406  -0.01378
  0-1A  ->  3-1A    7.514199   60606.1   165.0   0.039535288   0.01638   0.09819  -0.02417   0.07843
  0-1A  ->  4-1A    7.889339   63631.8   157.2   0.002619189   0.00114   0.01873  -0.01062  -0.02599

------------------------------------------------------------------------------------------
                     CD SPECTRUM VIA TRANSITION ELECTRIC DIPOLE MOMENTS    
------------------------------------------------------------------------------------------
     Transition      Energy     Energy  Wavelength    R        MX        MY        MZ   
                      (eV)      (cm-1)    (nm)   (1e40*cgs)   (au)      (au)      (au)  
------------------------------------------------------------------------------------------
  0-1A  ->  1-1A    4.247845   34261.2   291.9   -0.04863   0.06431   0.54200  -0.17803
  0-1A  ->  2-1A    6.705613   54084.4   184.9   -0.02340   0.11762  -0.06970  -0.16900
  0-1A  ->  3-1A    7.514199   60606.1   165.0    0.02730  -0.03584   0.02109   0.05148
  0-1A  ->  4-1A    7.889339   63631.8   157.2   -0.01991   0.05605   0.02138   0.03162

------------------------------------------------------------------------------------------
                     CD SPECTRUM VIA TRANSITION VELOCITY DIPOLE MOMENTS    
------------------------------------------------------------------------------------------
     Transition      Energy     Energy  Wavelength    R        MX        MY        MZ   
                      (eV)      (cm-1)    (nm)   (1e40*cgs)   (au)      (au)      (au)  
------------------------------------------------------------------------------------------
  0-1A  ->  1-1A    4.247845   34261.2   291.9    0.09952   0.06431   0.54200  -0.17803
  0-1A  ->  2-1A    6.705613   54084.4   184.9   -0.03510   0.11762  -0.06970  -0.16900
  0-1A  ->  3-1A    7.514199   60606.1   165.0    0.01459  -0.03584   0.02109   0.05148
  0-1A  ->  4-1A    7.889339   63631.8   157.2    0.00120   0.05605   0.02138   0.03162

Total run time:        1.679 sec

           *** ORCA-CIS/TD-DFT FINISHED WITHOUT ERROR ***
-----------------------
CIS/TD-DFT TOTAL ENERGY
-----------------------

    E(SCF)  =   -153.923272543 Eh
    DE(CIS) =      0.156105452 Eh (Root  1)
    ----------------------------- ---------
    E(tot)  =   -153.767167090 Eh


------------------------
TD-DFT GRADIENT XC SETUP
------------------------

Building densities                     ... done
Calculating rho(r) on the grid         ... done
Building xc-kernel on the grid         ... done
Building xc 3rd derivative on the grid ... done
                *** TD-DFT GRADIENT CALCULATION INITIALIZED ***

--------------------------
TD-DFT/TDA RELAXED DENSITY
--------------------------

Reference wavefunction             ... RHF
State of interest                  ... 1
Basis dimension                    ... 182
DFT-XC contribution needed         ... YES
RI-approximation                   ... YES
Do Coulomb                         ... YES
Do Exchange                        ... YES
Need Hartree-Fock Exchange         ... YES
facj, facx                         ...  2.000, -0.150
Conventional                       ... NO
Range separation                   ... YES
Triplet state                      ... NO
Spin Flip                          ... NO
CIS-vectors being read from        ... orca.cis
 => Number of Vectors found: 4
 => Orbital Window: 3...11 -> 12...181

Reading the CIS file                     ... done
Norm of the CI vector                    ... 1.000000000
Making the CIS (pseudo)densities         ... done
Making operators G(D) and Q(T)           ... (SHARK-ok)done
Transforming the Fock operators          ... done
Making the frozen-core relaxed density   ... done
Constructing the G(H) operator           ... (SHARK-ok)done
Transforming the G(H) operator           ... done
Calculating the CIS Lagrangian           ... done
Solving the Z-vector equations           ... 

Using XC Grid                  ... (orca.grid_cpscf.tmp) 
Recalculating density on grid  ... (orca.grho_cpscf0.tmp) done
Calculating the xc-kernel      ... (orca.fxc_cpscf0.tmp) done

-------------------
SHARK CP-SCF DRIVER
-------------------

Dimension of the orbital basis          ...    182
Dimension of the CPSCF-problem          ...   2040
Number of operators                     ...      1
Max. number of iterations               ...    128
Convergence Tolerance                   ... 1.0e-04
Number of perturbations                 ...      1
Perturbation type                       ... REAL

----------------------------
POPLE LINEAR EQUATION SOLVER
----------------------------

  ITERATION   0:   ||err||_max =   1.0179e+00 (   0.2 sec)
  ITERATION   1:   ||err||_max =   3.6082e-02 (   0.2 sec)
  ITERATION   2:   ||err||_max =   1.0498e-02 (   0.1 sec)
  ITERATION   3:   ||err||_max =   2.8488e-03 (   0.1 sec)
  ITERATION   4:   ||err||_max =   7.3302e-04 (   0.1 sec)
  ITERATION   5:   ||err||_max =   2.1876e-04 (   0.1 sec)
  ITERATION   6:   ||err||_max =   4.5654e-05 (   0.1 sec)

Finalizing the relaxed density           ... done
Storing the relaxed density              ... done
Constructing the G(Z) operator           ... (SHARK-ok)done
Adding the XC terms                      ... done
Transforming the G(Z) operator           ... done
Making the W-matrix                      ... done
Finalizing the W-matrix                  ... done
Transforming the W-matrix                ... done
Nuc. rep. gradient        (SHARK) ... done (  0.0 sec)
HCore & Overlap gradient  (SHARK) ... done (  0.0 sec)
Split-RIJ-J gradient      (SHARK) ... done (  0.1 sec)
COSX-gradient                     ... done (  2.1 sec)
Dispersion correction             ... done (  0.0 sec)

-------------------
DISPERSION GRADIENT
-------------------

   1   O   :    0.000166110    0.000267509    0.000005290
   2   C   :    0.000125680    0.000068975    0.000059008
   3   C   :   -0.000092544   -0.000062078   -0.000038797
   4   H   :    0.000195601    0.000011767    0.000131243
   5   H   :   -0.000067531   -0.000171904   -0.000103627
   6   H   :   -0.000152519   -0.000005908   -0.000103653
   7   H   :   -0.000174797   -0.000108363    0.000050535

Difference to translation invariance:
           :    0.0000000000    0.0000000000   -0.0000000000

Difference to rotation invariance:
           :   -0.0000000000   -0.0000000000    0.0000000000

Norm of the Dispersion gradient    ...    0.0005625870
RMS gradient                       ...    0.0001227665
MAX gradient                       ...    0.0002675093

                 ---------------------------
                 EXCITED STATE GRADIENT DONE
                 ---------------------------

------------------
CARTESIAN GRADIENT
------------------

   1   O   :   -0.018142455   -0.107945871    0.032148616
   2   C   :    0.003885464    0.101122256   -0.038877397
   3   C   :    0.006273505    0.014356776   -0.001348203
   4   H   :    0.003431544   -0.004215293    0.003682113
   5   H   :    0.000339678   -0.002220856    0.003165089
   6   H   :    0.002505867    0.001981396    0.000772545
   7   H   :    0.001797035   -0.003400363    0.000567016

Difference to translation invariance:
           :    0.0000906393   -0.0003219551    0.0001097787

Difference to rotation invariance:
           :    0.0011070419   -0.0002152825   -0.0000987696

Norm of the Cartesian gradient     ...    0.1584254626
RMS gradient                       ...    0.0345712702
MAX gradient                       ...    0.1079458707

------------------------------------------------------------------------------
                  RELAXED CIS/TDA DENSITY POPULATION ANALYSIS
                                   IROOT 1
------------------------------------------------------------------------------
------------------------------------------------------------------------------
                           ORCA POPULATION ANALYSIS
[...]
      f+1     :     0.003828
      f-1     :     0.021581
      f+2     :     0.019129
      f-2     :     0.010974
      f+3     :     0.024185
      f-3     :     0.017414
  2 C s       :     2.644634  s :     2.644634
      pz      :     0.920912  p :     2.687907
      px      :     0.870612
      py      :     0.896383
      dz2     :     0.047956  d :     0.479292
      dxz     :     0.126164
      dyz     :     0.102987
      dx2y2   :     0.104303
      dxy     :     0.097881
      f0      :     0.004221  f :     0.032380
      f+1     :     0.005714
      f-1     :     0.002917
      f+2     :     0.003019
      f-2     :     0.005574
      f+3     :     0.006125
      f-3     :     0.004809
  3 H s       :     0.679498  s :     0.679498
      pz      :     0.109285  p :     0.271375
      px      :     0.096695
      py      :     0.065395
      dz2     :     0.007984  d :     0.030187
      dxz     :     0.006826
      dyz     :     0.004982
      dx2y2   :     0.004867
      dxy     :     0.005529
  4 H s       :     0.702097  s :     0.702097
      pz      :     0.092387  p :     0.282938
      px      :     0.077357
      py      :     0.113194
      dz2     :     0.005449  d :     0.030040
      dxz     :     0.003192
      dyz     :     0.008067
      dx2y2   :     0.006597
      dxy     :     0.006736
  5 H s       :     0.694843  s :     0.694843
      pz      :     0.098119  p :     0.288569
      px      :     0.089504
      py      :     0.100946
      dz2     :     0.006883  d :     0.030934
      dxz     :     0.005907
      dyz     :     0.006483
      dx2y2   :     0.005672
      dxy     :     0.005989
  6 H s       :     0.702123  s :     0.702123
      pz      :     0.106732  p :     0.282928
      px      :     0.094401
      py      :     0.081796
      dz2     :     0.007546  d :     0.030041
      dxz     :     0.007793
      dyz     :     0.006608
      dx2y2   :     0.003938
      dxy     :     0.004157


                      *****************************
                      * MAYER POPULATION ANALYSIS *
                      *****************************

  NA   - Mulliken gross atomic population
  ZA   - Total nuclear charge
  QA   - Mulliken gross atomic charge
  VA   - Mayer's total valence
  BVA  - Mayer's bonded valence
  FA   - Mayer's free valence

  ATOM       NA         ZA         QA         VA         BVA        FA
  0 O      8.3370     8.0000    -0.3370     1.9660     1.1169     0.8490
  1 C      5.9045     6.0000     0.0955     3.3667     2.5596     0.8071
  2 C      6.6320     6.0000    -0.6320     3.7272     3.5982     0.1290
  3 H      0.7701     1.0000     0.2299     0.9473     0.8583     0.0890
  4 H      0.8005     1.0000     0.1995     1.0331     1.0085     0.0245
  5 H      0.7551     1.0000     0.2449     0.9824     0.9796     0.0028
  6 H      0.8008     1.0000     0.1992     1.0340     1.0096     0.0245

  Mayer bond orders larger than 0.100000
B(  0-O ,  1-C ) :   1.0872 B(  1-C ,  2-C ) :   0.6603 B(  1-C ,  3-H ) :   0.8970 
B(  2-C ,  4-H ) :   0.9991 B(  2-C ,  5-H ) :   0.9455 B(  2-C ,  6-H ) :   1.0004 



-------
TIMINGS
-------

Total TD-DFT gradient time  ....        4.975 sec

Fock matrix formation       ....       1.140 sec  ( 22.9%)
  Coulomb formation         ....       0.862 sec  ( 75.7% of F)
  XC integration            ....       0.277 sec  ( 24.3% of F)
Z-vector equation           ....       1.094 sec  ( 22.0%)
Densities                   ....       0.000 sec  (  0.0%)
One electron gradient       ....       0.009 sec  (  0.2%)
Two electron gradient       ....       0.000 sec  (  0.0%)
RI-J Coulomb gradient       ....       0.098 sec  (  2.0%)
COSX gradient               ....       0.360 sec  (  7.2%)
XC gradient                 ....       2.091 sec  ( 42.0%)

Maximum memory used throughout the entire CIS-calculation: 34.9 MB
=> NOW LEAVING ORCA_CIS


-------------------------------------------------------------------------------
                          DFT DISPERSION CORRECTION                            
                                                                               
                              DFTD3 V3.1  Rev 1                                
                          USING Becke-Johnson damping                          
-------------------------------------------------------------------------------
The WB97M functional is recognized
Active option DFTDOPT                   ...         4   

molecular C6(AA) [au] = 394.912225 


            DFT-D V3
 parameters
 s6 scaling factor         :     1.0000 
 a1 scaling factor         :     0.5660 
 s8 scaling factor         :     0.3908 
 a2 scaling factor         :     3.1280 
 ad hoc parameters k1-k3   :    16.0000     1.3333    -4.0000 

 Edisp/kcal,au: -3.483965434253  -0.005552051732 
 E6   /kcal   :  -2.808461129 
 E8   /kcal   :  -0.675504305 
 % E8         :  19.388949696 

-------------------------   ----------------
Dispersion correction           -0.005552052
-------------------------   ----------------


-------------------------   --------------------
FINAL SINGLE POINT ENERGY      -153.772719142108
-------------------------   --------------------

[1741191801.535629] [ohm:213718:0]        ib_iface.c:1059 UCX  ERROR ibv_create_cq(cqe=256) failed: Connection timed out
[1741191801.535777] [ohm:213714:0]        ib_iface.c:1059 UCX  ERROR ibv_create_cq(cqe=256) failed: Connection timed out
[1741191801.542871] [ohm:213722:0]        ib_iface.c:1059 UCX  ERROR ibv_create_cq(cqe=256) failed: Connection timed out
[1741191801.545564] [ohm:213717:0]        ib_iface.c:1059 UCX  ERROR ibv_create_cq(cqe=256) failed: Connection timed out
[1741191801.550347] [ohm:213716:0]        ib_iface.c:1059 UCX  ERROR ibv_create_cq(cqe=256) failed: Connection timed out
[1741191801.552844] [ohm:213721:0]        ib_iface.c:1059 UCX  ERROR ibv_create_cq(cqe=256) failed: Connection timed out
[1741191801.557308] [ohm:213720:0]        ib_iface.c:1059 UCX  ERROR ibv_create_cq(cqe=256) failed: Connection timed out
[1741191801.559540] [ohm:213715:0]        ib_iface.c:1059 UCX  ERROR ibv_create_cq(cqe=256) failed: Connection timed out
[1741191801.567407] [ohm:213733:0]        ib_iface.c:1059 UCX  ERROR ibv_create_cq(cqe=256) failed: Connection timed out
[1741191801.577040] [ohm:213736:0]        ib_iface.c:1059 UCX  ERROR ibv_create_cq(cqe=256) failed: Connection timed out
[1741191801.577578] [ohm:213738:0]        ib_iface.c:1059 UCX  ERROR ibv_create_cq(cqe=256) failed: Connection timed out
[1741191801.578914] [ohm:213729:0]        ib_iface.c:1059 UCX  ERROR ibv_create_cq(cqe=256) failed: Connection timed out
[1741191801.580845] [ohm:213725:0]        ib_iface.c:1059 UCX  ERROR ibv_create_cq(cqe=256) failed: Connection timed out
[1741191801.580918] [ohm:213719:0]        ib_iface.c:1059 UCX  ERROR ibv_create_cq(cqe=256) failed: Connection timed out
[1741191801.584612] [ohm:213724:0]        ib_iface.c:1059 UCX  ERROR ibv_create_cq(cqe=256) failed: Connection timed out
[1741191801.636707] [ohm:213740:0]        ib_iface.c:1059 UCX  ERROR ibv_create_cq(cqe=256) failed: Connection timed out


           ************************************************************
           *        Program running with 16 parallel MPI-processes    *
           *              working on a common directory               *
           ************************************************************

------------------------------------------------------------------------------
                              ORCA PROPERTY CALCULATIONS
------------------------------------------------------------------------------

GBWName                                 ... orca.gbw
Number of atoms                         ...      7
Number of basis functions               ...    182
Max core memory                         ...   1024 MB

Electric properties:
Dipole moment                           ... YES
Quadrupole moment                       ...  NO
Static polarizability (Dipole/Dipole)   ...  NO
Static polarizability (Dipole/Quad.)    ...  NO
Static polarizability (Quad./Quad.)     ...  NO
Static polarizability (Velocity)        ...  NO

Atomic electric properties:
Dipole moment                           ...  NO
Quadrupole moment                       ...  NO
Static polarizability                   ...  NO

Choice of electric origin               ... Center of mass
Position of electric origin             ...     0.989285     0.323372    -0.001778

General magnetic properties:
Magnetizability                         ...  NO

EPR properties:
g-Tensor (aka g-matrix)                 ...  NO
Zero-Field splitting spin-orbit         ...  NO
Zero-field splitting spin-spin          ...  NO
Hyperfine couplings                     ...  NO (   0 nuclei)
Quadrupole couplings                    ...  NO (   0 nuclei)
Contact density                         ...  NO (   0 nuclei)

NMR properties:
Chemical shifts                         ...  NO (   0 nuclei)
Spin-rotation constants                 ...  NO (   0 nuclei)
Spin-spin couplings                     ...  NO (   0 nuclei,    0 pairs)

Choice of magnetic origin               ... GIAO
Position of magnetic origin             ...     0.000000     0.000000     0.000000

Properties with geometric perturbations:
SCF Hessian                             ...  NO
IR spectrum                             ...  NO
VCD spectrum                            ...  NO
X-ray spectroscopy properties:
SCF XES/XAS/RIXS spectra                ...  NO


-------------
DIPOLE MOMENT
-------------

Method             : SCF
Type of density    : Electron Density
Multiplicity       :   1
Irrep              :   0
Energy             :  -153.9232725428514357 Eh
Relativity type    : 
Basis              : AO
                                X                 Y                 Z
Electronic contribution:      1.888629132       2.562435448       0.257711145
Nuclear contribution   :     -2.152310105      -3.589305013      -0.017829472
                        -----------------------------------------
Total Dipole Moment    :     -0.263680973      -1.026869565       0.239881672
                        -----------------------------------------
Magnitude (a.u.)       :      1.086982969
Magnitude (Debye)      :      2.762891137



--------------------
Rotational spectrum 
--------------------
 
Rotational constants in cm-1:             1.706872             0.362905             0.316619 
Rotational constants in MHz :         51170.746038         10879.607855          9491.997581 

Dipole components along the rotational axes: 
x,y,z [a.u.] :    -0.954811     0.519488    -0.000021 
x,y,z [Debye]:    -2.426937     1.320434    -0.000054 

 

-------------
DIPOLE MOMENT
-------------

Method             : TDA/CIS
Type of density    : Electron Density
Level              : Relaxed density
State              :   1
Multiplicity       :   1
Irrep              :   0
Energy             :     0.0000000000000000 Eh
Relativity type    : 
Basis              : AO
                                X                 Y                 Z
Electronic contribution:      1.925973712       2.919497323       0.136126020
Nuclear contribution   :     -2.152310105      -3.589305013      -0.017829472
                        -----------------------------------------
Total Dipole Moment    :     -0.226336392      -0.669807690       0.118296548
                        -----------------------------------------
Magnitude (a.u.)       :      0.716843481
Magnitude (Debye)      :      1.822071327



--------------------
Rotational spectrum 
--------------------
 
Rotational constants in cm-1:             1.706872             0.362905             0.316619 
Rotational constants in MHz :         51170.746038         10879.607855          9491.997581 

Dipole components along the rotational axes: 
x,y,z [a.u.] :    -0.658641     0.282942    -0.000297 
x,y,z [Debye]:    -1.674133     0.719181    -0.000755 

 

Dipole moment calculation done in   0.0 sec 

Maximum memory used throughout the entire PROP-calculation: 7.3 MB
[1741191802.610154] [ohm:213798:0]        ib_iface.c:1059 UCX  ERROR ibv_create_cq(cqe=256) failed: Connection timed out
[1741191802.612663] [ohm:213800:0]        ib_iface.c:1059 UCX  ERROR ibv_create_cq(cqe=256) failed: Connection timed out
[1741191802.621410] [ohm:213799:0]        ib_iface.c:1059 UCX  ERROR ibv_create_cq(cqe=256) failed: Connection timed out
[1741191802.645385] [ohm:213818:0]        ib_iface.c:1059 UCX  ERROR ibv_create_cq(cqe=256) failed: Connection timed out
[1741191802.645381] [ohm:213802:0]        ib_iface.c:1059 UCX  ERROR ibv_create_cq(cqe=256) failed: Connection timed out
[1741191802.645396] [ohm:213804:0]        ib_iface.c:1059 UCX  ERROR ibv_create_cq(cqe=256) failed: Connection timed out
[1741191802.645526] [ohm:213814:0]        ib_iface.c:1059 UCX  ERROR ibv_create_cq(cqe=256) failed: Connection timed out
[1741191802.647611] [ohm:213806:0]        ib_iface.c:1059 UCX  ERROR ibv_create_cq(cqe=256) failed: Connection timed out
[1741191802.652470] [ohm:213797:0]        ib_iface.c:1059 UCX  ERROR ibv_create_cq(cqe=256) failed: Connection timed out
[1741191802.652449] [ohm:213801:0]        ib_iface.c:1059 UCX  ERROR ibv_create_cq(cqe=256) failed: Connection timed out
[1741191802.652515] [ohm:213817:0]        ib_iface.c:1059 UCX  ERROR ibv_create_cq(cqe=256) failed: Connection timed out
[1741191802.654819] [ohm:213809:0]        ib_iface.c:1059 UCX  ERROR ibv_create_cq(cqe=256) failed: Connection timed out
[1741191802.661782] [ohm:213820:0]        ib_iface.c:1059 UCX  ERROR ibv_create_cq(cqe=256) failed: Connection timed out
[1741191802.661755] [ohm:213803:0]        ib_iface.c:1059 UCX  ERROR ibv_create_cq(cqe=256) failed: Connection timed out
[1741191802.661755] [ohm:213805:0]        ib_iface.c:1059 UCX  ERROR ibv_create_cq(cqe=256) failed: Connection timed out
[1741191802.665205] [ohm:213824:0]        ib_iface.c:1059 UCX  ERROR ibv_create_cq(cqe=256) failed: Connection timed out

--------------------------------
SUGGESTED CITATIONS FOR THIS RUN
--------------------------------

Below you find a list of papers that are relevant to this ORCA run
We neither can nor want to force you to cite these papers, but we appreciate if you do
You receive ORCA, which is the product of decades of hard work by many enthusiastic individuals, for free
The only thing we kindly ask in return is that you cite our papers,
We deeply appreciate it, if you show your appreciation for ORCA by not just citing the generic ORCA reference.

Please note that relegating all ORCA citations to the supporting information does *not* help us.
SI sections are not indexed - citations you put there will not count into any citation statistics
But we need these citations in order to attract the funding resources that allow us to do what we are doing

Therefore, if you are a happy ORCA user, please consider citing a few of the papers listed below in the main body of your paper

In addition to the list printed below, the program has created the file orca.bibtex that contains the list in bibtex format
You can import this file easily into all common literature databanks and citation aid programs


List of essential papers. We consider these as the minimum necessary citations

  1. Neese,F.
     Software update: the ORCA program system, version 5.0
     WIRES Comput. Molec. Sci., 2022 12(1)e1606
     doi.org/10.1002/wcms.1606

List of papers to cite with high priority. The work reported in these papers was absolutely
necessary for this run to complete.
Our perspective: the developers of density functionals and basis sets usually get cited in chemistry papers
Good! But without the algorithms to do something with them, the functionals or basis sets would not do anything.
Hence, in our opinion, the algorithm design and method developments papers are equally worthy of getting cited

  1. Neese,F.; Olbrich,G.
     Efficient use of the resolution of the identity approximation in time-dependent density functional calculations with hybrid density functionals
     Chem. Phys. Lett., 2002 362 170-178
     doi.org/10.1016/s0009-2614(02)01053-9
  2. Neese,F.
     An improvement of the resolution of the identity approximation for the formation of the Coulomb matrix
     J. Comp. Chem., 2003 24(14)1740-1747
     doi.org/10.1002/jcc.10318
  3. Neese,F.; Wennmohs,F.; Hansen,A.; Becker,U.
     Efficient, approximate and parallel Hartree-Fock and hybrid DFT calculations. A 'chain-of-spheres' algorithm for the Hartree-Fock exchange
     Chem. Phys., 2009 356(1-3)98-109
     doi.org/10.1016/j.chemphys.2008.10.036
  4. Petrenko,T.; Kossmann,S.; Neese,F.
     Efficient time-dependent density functional theory approximations for hybrid density functionals: Analytical gradients and parallelization
     J. Chem. Phys., 2011 134 054116
     doi.org/10.1063/1.3533441
  5. Helmich-Paris,B.; de Souza,B.; Neese,F.; Izsák,R.
     An improved chain of spheres for exchange algorithm
     J. Chem. Phys., 2021 155 104109
     doi.org/doi: 10.1063/5.0058766.
  6. Neese,F.
     The SHARK Integral Generation and Digestion System
     J. Comp. Chem., 2022  1-16
     doi.org/10.1002/jcc.26942
  7. Lehtola,S.; Steigemann,C.; Oliveira,M.; Marques,M.
     Recent developments in Libxc - A comprehensive library of functionals for density functional theory
     Software X, 2018 7 
     doi.org/10.1016/j.softx.2017.11.002
  8. Grimme,S.; Antony,J.; Ehrlich,S.; Krieg,H.
     A consistent and accurate ab initio parametrization of density functional dispersion correction (DFT-D) for the 94 elements H-Pu
     J. Chem. Phys., 2010 132 154104-XXXX
     doi.org/10.1063/1.3382344
  9. Grimme,S.; Ehrlich,S.; Goerigk,L.
     Effect of the damping function in dispersion corrected density functional theory
     J. Comput. Chem., 2011 32(7)1456-1465
     doi.org/10.1002/jcc.21759

List of suggested additional citations. These are papers that are important in the 'surrounding' of 
of this run, or papers that preceded the highly important papers. If you like your results we are grateful for a citation.

  1. Izsak,R.; Neese,F.
     An overlap fitted chain of spheres exchange method
     J. Chem. Phys., 2011 135 144105
     doi.org/10.1063/1.3646921
  2. Izsak,R.; Hansen,A.; Neese,F.
     The resolution of identity and chain of spheres approximations for the LPNO-CCSD singles Fock term
     Molec. Phys., 2012 110 2413-2417
     doi.org/10.1080/00268976.2012.687466
  3. Neese,F.
     The ORCA program system
     WIRES Comput. Molec. Sci., 2012 2(1)73-78
     doi.org/10.1002/wcms.81
  4. Izsak,R.; Neese,F.; Klopper,W.
     Robust fitting techniques in the chain of spheres approximation to the Fock exchange: The role of the complementary space
     J. Chem. Phys., 2013 139 
     doi.org/10.1063/1.4819264
  5. Neese,F.
     Software update: the ORCA program system, version 4.0
     WIRES Comput. Molec. Sci., 2018 8(1)1-6
     doi.org/10.1002/wcms.1327
  6. Neese,F.; Wennmohs,F.; Becker,U.; Riplinger,C.
     The ORCA quantum chemistry program package
     J. Chem. Phys., 2020 152 Art. No. L224108
     doi.org/10.1063/5.0004608

List of optional additional citations

  1. Neese,F.
     Approximate second-order SCF convergence for spin unrestricted wavefunctions
     Chem. Phys. Lett., 2000 325(1-3)93-98
     doi.org/10.1016/s0009-2614(00)00662-x

Timings for individual modules:

Sum of individual times          ...       16.249 sec (=   0.271 min)
Startup calculation              ...        1.207 sec (=   0.020 min)   7.4 %
SCF iterations                   ...        5.348 sec (=   0.089 min)  32.9 %
Property integrals               ...        0.911 sec (=   0.015 min)   5.6 %
Property calculations            ...        1.103 sec (=   0.018 min)   6.8 %
CIS module                       ...        7.680 sec (=   0.128 min)  47.3 %
                             ****ORCA TERMINATED NORMALLY****
TOTAL RUN TIME: 0 days 0 hours 0 minutes 17 seconds 303 msec
