
                                 *****************
                                 * O   R   C   A *
                                 *****************

                                            #,                                       
                                            ###                                      
                                            ####                                     
                                            #####                                    
                                            ######                                   
                                           ########,                                 
                                     ,,################,,,,,                         
                               ,,#################################,,                 
                          ,,##########################################,,             
                       ,#########################################, ''#####,          
                    ,#############################################,,   '####,        
                  ,##################################################,,,,####,       
                ,###########''''           ''''###############################       
              ,#####''   ,,,,##########,,,,          '''####'''          '####       
            ,##' ,,,,###########################,,,                        '##       
           ' ,,###''''                  '''############,,,                           
         ,,##''                                '''############,,,,        ,,,,,,###''
      ,#''                                            '''#######################'''  
     '                                                          ''''####''''         
             ,#######,   #######,   ,#######,      ##                                
            ,#'     '#,  ##    ##  ,#'     '#,    #''#        ,####,   ,####,        
            ##       ##  ##   ,#'  ##            #'  '#       #'       #'  '#        
            ##       ##  #######   ##           ,######,      #####,   #    #        
            '#,     ,#'  ##    ##  '#,     ,#' ,#      #,     #,   #   #,  ,#        
             '#######'   ##     ##  '#######'  #'      '#     '####' # '####'        



                #########################################################
                #                        -***-                          #
                #          Department of theory and spectroscopy        #
                #                                                       #
                #                      Frank Neese                      #
                #                                                       #
                #     Directorship, Architecture, Infrastructure        #
                #                    SHARK, DRIVERS                     #
                #        Core code/Algorithms in most modules           #
                #                                                       #
                #        Max Planck Institute fuer Kohlenforschung      #
                #                Kaiser Wilhelm Platz 1                 #
                #                 D-45470 Muelheim/Ruhr                 #
                #                      Germany                          #
                #                                                       #
                #                  All rights reserved                  #
                #                        -***-                          #
                #########################################################


                         Program Version 6.0.0  -   RELEASE  -


 With contributions from (in alphabetic order):
   Daniel Aravena         : Magnetic Suceptibility
   Michael Atanasov       : Ab Initio Ligand Field Theory (pilot matlab implementation)
   Alexander A. Auer      : GIAO ZORA, VPT2 properties, NMR spectrum
   Ute Becker             : All parallelization in ORCA, NUMFREQ, NUMCALC
   Giovanni Bistoni       : ED, misc. LED, open-shell LED, HFLD
   Martin Brehm           : Molecular dynamics
   Dmytro Bykov           : pre 5.0 version of the SCF Hessian
   Marcos Casanova-Páez   : Triplet and SCS-CIS(D). UHF-(DLPNO)-IP/EA/STEOM-CCSD. UHF-CVS-IP/STEOM-CCSD
   Vijay G. Chilkuri      : MRCI spin determinant printing, contributions to CSF-ICE
   Pauline Colinet        : FMM embedding
   Dipayan Datta          : RHF DLPNO-CCSD density
   Achintya Kumar Dutta   : EOM-CC, STEOM-CC
   Nicolas Foglia         : Exact transition moments, OPA infrastructure, MCD improvements
   Dmitry Ganyushin       : Spin-Orbit,Spin-Spin,Magnetic field MRCI
   Miquel Garcia          : C-PCM and meta-GGA Hessian, CCSD/C-PCM, Gaussian charge scheme
   Tiago L. C. Gouveia    : GS-ROHF, GS-ROCIS
   Yang Guo               : DLPNO-NEVPT2, F12-NEVPT2, CIM, IAO-localization
   Andreas Hansen         : Spin unrestricted coupled pair/coupled cluster methods
   Ingolf Harden          : AUTO-CI MPn and infrastructure 
   Benjamin Helmich-Paris : MC-RPA, TRAH-(SCF,CASSCF), AVAS, COSX integrals, SCF dyn. polar.
   Lee Huntington         : MR-EOM, pCC
   Robert Izsak           : Overlap fitted RIJCOSX, COSX-SCS-MP3, EOM
   Riya Kayal             : Wick's Theorem for AUTO-CI, AUTO-CI UHF-CCSDT
   Emily Kempfer          : AUTO-CI, RHF CISDT and CCSDT
   Christian Kollmar      : KDIIS, OOCD, Brueckner-CCSD(T), CCSD density, CASPT2, CASPT2-K, improved NEVPT2
   Axel Koslowski         : Symmetry handling
   Simone Kossmann        : Meta GGA functionals, TD-DFT gradient, OOMP2, (MP2 Hessian; deprecated post 5.0)
   Lucas Lang             : DCDCAS
   Marvin Lechner         : AUTO-CI (C++ implementation), FIC-MRCC
   Spencer Leger          : CASSCF response
   Dagmar Lenk            : GEPOL surface, SMD, ORCA-2-JSON
   Dimitrios Liakos       : Extrapolation schemes; Compound Job, initial MDCI parallelization
   Dimitrios Manganas     : Further ROCIS development; embedding schemes. LFT, Crystal Embedding
   Dimitrios Pantazis     : SARC Basis sets
   Anastasios Papadopoulos: AUTO-CI, single reference methods and gradients
   Taras Petrenko         : pre 6.0 DFT Hessian and TD-DFT gradient, (ASA, deprecated), ECA, 1-Electron XAS/XES, NRVS
   Peter Pinski           : DLPNO-MP2, DLPNO-MP2 Gradient
   Christoph Reimann      : Effective Core Potentials
   Marius Retegan         : Local ZFS, SOC
   Christoph Riplinger    : Optimizer, TS searches, QM/MM, DLPNO-CCSD(T), (RO)-DLPNO pert. Triples
   Michael Roemelt        : Original ROCIS implementation
   Masaaki Saitow         : Open-shell DLPNO-CCSD energy and density
   Barbara Sandhoefer     : DKH picture change effects
   Kantharuban Sivalingam : CASSCF convergence/infrastructure, NEVPT2 and variants, FIC-MRCI
   Bernardo de Souza      : ESD, SOC TD-DFT
   Georgi Stoychev        : AutoAux, RI-MP2 NMR, DLPNO-MP2 response, X2C
   Van Anh Tran           : RI-MP2 g-tensors
   Willem Van den Heuvel  : Paramagnetic NMR
   Zikuan Wang            : NOTCH, Electric field optimization 
   Frank Wennmohs         : Technical directorship and infrastructure
   Hang Xu                : AUTO-CI-Response properties 


 We gratefully acknowledge several colleagues who have allowed us to
 interface, adapt or use parts of their codes:
   Stefan Grimme, W. Hujo, H. Kruse, P. Pracht,  : VdW corrections, initial TS optimization,
                  C. Bannwarth, S. Ehlert,         DFT functionals, gCP, sTDA/sTD-DF
                  L. Wittmann, M. Mueller
   Ed Valeev, F. Pavosevic, A. Kumar             : LibInt (2-el integral package), F12 methods
   Garnet Chan, S. Sharma, J. Yang, R. Olivares  : DMRG
   Ulf Ekstrom                                   : XCFun DFT Library
   Mihaly Kallay                                 : mrcc  (arbitrary order and MRCC methods)
   Frank Weinhold                                : gennbo (NPA and NBO analysis)
   Simon Mueller                                 : openCOSMO-RS
   Christopher J. Cramer and Donald G. Truhlar   : smd solvation model
   Lars Goerigk                                  : TD-DFT with DH, B97 family of functionals
   V. Asgeirsson, H. Jonsson                     : NEB implementation
   FAccTs GmbH                                   : IRC, NEB, NEB-TS, DLPNO-Multilevel, CI-OPT
                                                   MM, QMMM, 2- and 3-layer-ONIOM, Crystal-QMMM,
                                                   LR-CPCM, SF, NACMEs, symmetry and pop. for TD-DFT,
                                                   nearIR, NL-DFT gradient (VV10), updates on ESD,
                                                   ML-optimized integration grids, MBIS, APM,
                                                   GOAT, DOCKER, SOLVATOR, interface openCOSMO-RS
   S Lehtola, MJT Oliveira, MAL Marques          : LibXC Library
   Liviu Ungur et al                             : ANISO software


 Your calculation uses the libint2 library for the computation of 2-el integrals
 For citations please refer to: http://libint.valeyev.net

 Your ORCA version has been built with support for libXC version: 6.2.2
 For citations please refer to: https://libxc.gitlab.io

 This ORCA versions uses:
   CBLAS   interface :  Fast vector & matrix operations
   LAPACKE interface :  Fast linear algebra routines
   SCALAPACK package :  Parallel linear algebra routines
   Shared memory     :  Shared parallel matrices
   BLAS/LAPACK       :  OpenBLAS 0.3.27  USE64BITINT DYNAMIC_ARCH NO_AFFINITY Zen SINGLE_THREADED
        Core in use  :  Zen
   Copyright (c) 2011-2014, The OpenBLAS Project


Your calculation utilizes the atom-pairwise dispersion correction
with the Becke-Johnson damping scheme (D3BJ)


Warning: RI is on but no J-basis has been assigned. Assigning Def2/J (nothing to worry about!)
================================================================================

----- Orbital basis set information -----
Your calculation utilizes the basis: def2-TZVPPD
   F. Weigend and R. Ahlrichs, Phys. Chem. Chem. Phys. 7, 3297 (2005).
   D. Rappoport and F. Furche, J. Chem. Phys. 133, 134105 (2010)
   D. Rappoport, J. Chem. Phys. 155, 124102 (2021).

----- AuxJ basis set information -----
Your calculation utilizes the auxiliary basis: def2/J
   F. Weigend, Phys. Chem. Chem. Phys. 8, 1057 (2006).

================================================================================
                                        WARNINGS
                       Please study these warnings very carefully!
================================================================================

Using LibXC functional ID 531 : wB97M-V exchange-correlation functional
[ 1]  N. Mardirossian and M. Head-Gordon.,  J. Chem. Phys. 144, 214110 (2016)
Using LibXC functional ID 531 : wB97M-V exchange-correlation functional
[ 1]  N. Mardirossian and M. Head-Gordon.,  J. Chem. Phys. 144, 214110 (2016)

WARNING: B97M-V or wB97M-V functional requested.
  ===> : libXC variant has now been activated.
         Any manually given DFX/HFX/RangeSep scaling parameters are IGNORED!

Your calculation utilizes LibXC
 by S Lehtola, C Steigemann, MJT Oliveira & MAL Marques
Please cite in your paper:
 S Lehtola, C Steigemann, MJT Oliveira & MAL Marques, SoftwareX, 7, (2018), 1.
   


WARNING: your system is open-shell and RHF/RKS was chosen
  ===> : WILL SWITCH to UHF/UKS

INFO   : Checking CIS options ...

WARNING: CIS/ROCIS methods need fully converged wavefunctions
  ===> : Setting SCFConvForced true
         You can overwrite this default with %scf ConvForced false 


================================================================================
                                       INPUT FILE
================================================================================
NAME = orca.inp
|  1> ! Engrad def2-TZVPPD wB97M-D3BJ 
|  2> %pal nprocs 8 end%pal nprocs 64 end 
|  3> %tddft 
|  4>  Iroot 2 Nroots 3 
|  5> sf true 
|  6> end 
|  7> *xyz 0 3 
|  8> O   0.40426138 -0.76269619 -0.73249734
|  9> C   0.85204855 0.01639342 0.37482427
| 10> C   -0.0930316 1.03680089 0.6562215
| 11> H   1.86019775 0.44072696 0.21057989
| 12> H   1.03263377 -0.83818756 1.06175625
| 13> H   0.30957832 2.03719159 0.92235903
| 14> H   -1.1388351 0.90104241 0.40317094
| 15> *
| 16> 
| 17>                          ****END OF INPUT****
================================================================================

                     *******************************
                     * Energy+Gradient Calculation *
                     *******************************

---------------------------------
CARTESIAN COORDINATES (ANGSTROEM)
---------------------------------
  O      0.404261   -0.762696   -0.732497
  C      0.852049    0.016393    0.374824
  C     -0.093032    1.036801    0.656221
  H      1.860198    0.440727    0.210580
  H      1.032634   -0.838188    1.061756
  H      0.309578    2.037192    0.922359
  H     -1.138835    0.901042    0.403171

----------------------------
CARTESIAN COORDINATES (A.U.)
----------------------------
  NO LB      ZA    FRAG     MASS         X           Y           Z
   0 O     8.0000    0    15.999    0.763943   -1.441287   -1.384219
   1 C     6.0000    0    12.011    1.610138    0.030979    0.708315
   2 C     6.0000    0    12.011   -0.175804    1.959270    1.240079
   3 H     1.0000    0     1.008    3.515264    0.832853    0.397938
   4 H     1.0000    0     1.008    1.951395   -1.583945    2.006429
   5 H     1.0000    0     1.008    0.585018    3.849734    1.743006
   6 H     1.0000    0     1.008   -2.152086    1.702723    0.761883

--------------------------------
INTERNAL COORDINATES (ANGSTROEM)
--------------------------------
 O      0   0   0     0.000000000000     0.00000000     0.00000000
 C      1   0   0     1.426062802965     0.00000000     0.00000000
 C      2   1   0     1.419011027373   109.73746912     0.00000000
 H      2   1   3     1.106074129067   112.36403926   235.81198500
 H      2   1   3     1.111213399040    96.36663181   128.01564544
 H      3   2   1     1.110722956098   116.98574853   220.40743947
 H      3   2   1     1.084513675073   120.39470896    27.02595505

---------------------------
INTERNAL COORDINATES (A.U.)
---------------------------
 O      0   0   0     0.000000000000     0.00000000     0.00000000
 C      1   0   0     2.694868147375     0.00000000     0.00000000
 C      2   1   0     2.681542222750   109.73746912     0.00000000
 H      2   1   3     2.090177187752   112.36403926   235.81198500
 H      2   1   3     2.099889000530    96.36663181   128.01564544
 H      3   2   1     2.098962197685   116.98574853   220.40743947
 H      3   2   1     2.049433834381   120.39470896    27.02595505

---------------------
BASIS SET INFORMATION
---------------------
There are 3 groups of distinct atoms

 Group   1 Type O   : 12s7p3d1f contracted to 6s4p3d1f pattern {621111/4111/111/1}
 Group   2 Type C   : 12s6p3d1f contracted to 6s3p3d1f pattern {621111/411/111/1}
 Group   3 Type H   : 5s3p1d contracted to 3s3p1d pattern {311/111/1}

Atom   0O    basis set group =>   1
Atom   1C    basis set group =>   2
Atom   2C    basis set group =>   2
Atom   3H    basis set group =>   3
Atom   4H    basis set group =>   3
Atom   5H    basis set group =>   3
Atom   6H    basis set group =>   3
---------------------------------
AUXILIARY/J BASIS SET INFORMATION
---------------------------------
There are 3 groups of distinct atoms

 Group   1 Type O   : 12s5p4d2f1g contracted to 6s4p3d1f1g pattern {711111/2111/211/2/1}
 Group   2 Type C   : 12s5p4d2f1g contracted to 6s4p3d1f1g pattern {711111/2111/211/2/1}
 Group   3 Type H   : 5s2p1d contracted to 3s1p1d pattern {311/2/1}

Atom   0O    basis set group =>   1
Atom   1C    basis set group =>   2
Atom   2C    basis set group =>   2
Atom   3H    basis set group =>   3
Atom   4H    basis set group =>   3
Atom   5H    basis set group =>   3
Atom   6H    basis set group =>   3
[1741609707.729384] [ohm:3345072:0]        ib_iface.c:1059 UCX  ERROR ibv_create_cq(cqe=256) failed: Connection timed out
[1741609707.734769] [ohm:3345078:0]        ib_iface.c:1059 UCX  ERROR ibv_create_cq(cqe=256) failed: Connection timed out
[1741609707.737939] [ohm:3345073:0]        ib_iface.c:1059 UCX  ERROR ibv_create_cq(cqe=256) failed: Connection timed out
[1741609707.746970] [ohm:3345071:0]        ib_iface.c:1059 UCX  ERROR ibv_create_cq(cqe=256) failed: Connection timed out
[1741609707.759872] [ohm:3345090:0]        ib_iface.c:1059 UCX  ERROR ibv_create_cq(cqe=256) failed: Connection timed out
[1741609707.762225] [ohm:3345076:0]        ib_iface.c:1059 UCX  ERROR ibv_create_cq(cqe=256) failed: Connection timed out
[1741609707.762913] [ohm:3345084:0]        ib_iface.c:1059 UCX  ERROR ibv_create_cq(cqe=256) failed: Connection timed out
[1741609707.764766] [ohm:3345074:0]        ib_iface.c:1059 UCX  ERROR ibv_create_cq(cqe=256) failed: Connection timed out
[1741609707.783911] [ohm:3345086:0]        ib_iface.c:1059 UCX  ERROR ibv_create_cq(cqe=256) failed: Connection timed out
[1741609707.787760] [ohm:3345075:0]        ib_iface.c:1059 UCX  ERROR ibv_create_cq(cqe=256) failed: Connection timed out
[1741609707.796562] [ohm:3345094:0]        ib_iface.c:1059 UCX  ERROR ibv_create_cq(cqe=256) failed: Connection timed out
[1741609707.798612] [ohm:3345079:0]        ib_iface.c:1059 UCX  ERROR ibv_create_cq(cqe=256) failed: Connection timed out
[1741609707.808451] [ohm:3345083:0]        ib_iface.c:1059 UCX  ERROR ibv_create_cq(cqe=256) failed: Connection timed out
[1741609707.853045] [ohm:3345155:0]        ib_iface.c:1059 UCX  ERROR ibv_create_cq(cqe=256) failed: Connection timed out
[1741609707.853807] [ohm:3345085:0]        ib_iface.c:1059 UCX  ERROR ibv_create_cq(cqe=256) failed: Connection timed out
[1741609707.858826] [ohm:3345081:0]        ib_iface.c:1059 UCX  ERROR ibv_create_cq(cqe=256) failed: Connection timed out
[1741609707.862883] [ohm:3345103:0]        ib_iface.c:1059 UCX  ERROR ibv_create_cq(cqe=256) failed: Connection timed out
[1741609707.875400] [ohm:3345194:0]        ib_iface.c:1059 UCX  ERROR ibv_create_cq(cqe=256) failed: Connection timed out
[1741609707.884233] [ohm:3345080:0]        ib_iface.c:1059 UCX  ERROR ibv_create_cq(cqe=256) failed: Connection timed out
[1741609707.904910] [ohm:3345110:0]        ib_iface.c:1059 UCX  ERROR ibv_create_cq(cqe=256) failed: Connection timed out
[1741609707.907998] [ohm:3345077:0]        ib_iface.c:1059 UCX  ERROR ibv_create_cq(cqe=256) failed: Connection timed out
[1741609707.908576] [ohm:3345082:0]        ib_iface.c:1059 UCX  ERROR ibv_create_cq(cqe=256) failed: Connection timed out
[1741609707.909432] [ohm:3345107:0]        ib_iface.c:1059 UCX  ERROR ibv_create_cq(cqe=256) failed: Connection timed out
[1741609707.913129] [ohm:3345133:0]        ib_iface.c:1059 UCX  ERROR ibv_create_cq(cqe=256) failed: Connection timed out
[1741609707.913895] [ohm:3345149:0]        ib_iface.c:1059 UCX  ERROR ibv_create_cq(cqe=256) failed: Connection timed out
[1741609707.920554] [ohm:3345217:0]        ib_iface.c:1059 UCX  ERROR ibv_create_cq(cqe=256) failed: Connection timed out
[1741609707.933410] [ohm:3345220:0]        ib_iface.c:1059 UCX  ERROR ibv_create_cq(cqe=256) failed: Connection timed out
[1741609707.936721] [ohm:3345199:0]        ib_iface.c:1059 UCX  ERROR ibv_create_cq(cqe=256) failed: Connection timed out
[1741609707.941631] [ohm:3345127:0]        ib_iface.c:1059 UCX  ERROR ibv_create_cq(cqe=256) failed: Connection timed out
[1741609707.950382] [ohm:3345184:0]        ib_iface.c:1059 UCX  ERROR ibv_create_cq(cqe=256) failed: Connection timed out
[1741609707.955131] [ohm:3345141:0]        ib_iface.c:1059 UCX  ERROR ibv_create_cq(cqe=256) failed: Connection timed out
[1741609707.955467] [ohm:3345108:0]        ib_iface.c:1059 UCX  ERROR ibv_create_cq(cqe=256) failed: Connection timed out
[1741609707.956868] [ohm:3345097:0]        ib_iface.c:1059 UCX  ERROR ibv_create_cq(cqe=256) failed: Connection timed out
[1741609707.961194] [ohm:3345182:0]        ib_iface.c:1059 UCX  ERROR ibv_create_cq(cqe=256) failed: Connection timed out
[1741609707.962966] [ohm:3345121:0]        ib_iface.c:1059 UCX  ERROR ibv_create_cq(cqe=256) failed: Connection timed out
[1741609707.968337] [ohm:3345224:0]        ib_iface.c:1059 UCX  ERROR ibv_create_cq(cqe=256) failed: Connection timed out
[1741609707.972153] [ohm:3345129:0]        ib_iface.c:1059 UCX  ERROR ibv_create_cq(cqe=256) failed: Connection timed out
[1741609707.974170] [ohm:3345146:0]        ib_iface.c:1059 UCX  ERROR ibv_create_cq(cqe=256) failed: Connection timed out
[1741609707.978835] [ohm:3345101:0]        ib_iface.c:1059 UCX  ERROR ibv_create_cq(cqe=256) failed: Connection timed out
[1741609707.983288] [ohm:3345102:0]        ib_iface.c:1059 UCX  ERROR ibv_create_cq(cqe=256) failed: Connection timed out
[1741609707.984915] [ohm:3345161:0]        ib_iface.c:1059 UCX  ERROR ibv_create_cq(cqe=256) failed: Connection timed out
[1741609707.984935] [ohm:3345099:0]        ib_iface.c:1059 UCX  ERROR ibv_create_cq(cqe=256) failed: Connection timed out
[1741609707.986940] [ohm:3345105:0]        ib_iface.c:1059 UCX  ERROR ibv_create_cq(cqe=256) failed: Connection timed out
[1741609707.988033] [ohm:3345157:0]        ib_iface.c:1059 UCX  ERROR ibv_create_cq(cqe=256) failed: Connection timed out
[1741609707.998715] [ohm:3345118:0]        ib_iface.c:1059 UCX  ERROR ibv_create_cq(cqe=256) failed: Connection timed out
[1741609708.002418] [ohm:3345104:0]        ib_iface.c:1059 UCX  ERROR ibv_create_cq(cqe=256) failed: Connection timed out
[1741609708.005730] [ohm:3345188:0]        ib_iface.c:1059 UCX  ERROR ibv_create_cq(cqe=256) failed: Connection timed out
[1741609708.008138] [ohm:3345152:0]        ib_iface.c:1059 UCX  ERROR ibv_create_cq(cqe=256) failed: Connection timed out
[1741609708.010544] [ohm:3345164:0]        ib_iface.c:1059 UCX  ERROR ibv_create_cq(cqe=256) failed: Connection timed out
[1741609708.016619] [ohm:3345214:0]        ib_iface.c:1059 UCX  ERROR ibv_create_cq(cqe=256) failed: Connection timed out
[1741609708.018114] [ohm:3345177:0]        ib_iface.c:1059 UCX  ERROR ibv_create_cq(cqe=256) failed: Connection timed out
[1741609708.021435] [ohm:3345168:0]        ib_iface.c:1059 UCX  ERROR ibv_create_cq(cqe=256) failed: Connection timed out
[1741609708.022104] [ohm:3345138:0]        ib_iface.c:1059 UCX  ERROR ibv_create_cq(cqe=256) failed: Connection timed out
[1741609708.023297] [ohm:3345204:0]        ib_iface.c:1059 UCX  ERROR ibv_create_cq(cqe=256) failed: Connection timed out
[1741609708.024290] [ohm:3345170:0]        ib_iface.c:1059 UCX  ERROR ibv_create_cq(cqe=256) failed: Connection timed out
[1741609708.025280] [ohm:3345106:0]        ib_iface.c:1059 UCX  ERROR ibv_create_cq(cqe=256) failed: Connection timed out
[1741609708.029989] [ohm:3345112:0]        ib_iface.c:1059 UCX  ERROR ibv_create_cq(cqe=256) failed: Connection timed out
[1741609708.030039] [ohm:3345208:0]        ib_iface.c:1059 UCX  ERROR ibv_create_cq(cqe=256) failed: Connection timed out
[1741609708.032830] [ohm:3345174:0]        ib_iface.c:1059 UCX  ERROR ibv_create_cq(cqe=256) failed: Connection timed out
[1741609708.033356] [ohm:3345190:0]        ib_iface.c:1059 UCX  ERROR ibv_create_cq(cqe=256) failed: Connection timed out
[1741609708.034279] [ohm:3345196:0]        ib_iface.c:1059 UCX  ERROR ibv_create_cq(cqe=256) failed: Connection timed out
[1741609708.034937] [ohm:3345159:0]        ib_iface.c:1059 UCX  ERROR ibv_create_cq(cqe=256) failed: Connection timed out
[1741609708.035387] [ohm:3345166:0]        ib_iface.c:1059 UCX  ERROR ibv_create_cq(cqe=256) failed: Connection timed out
[1741609708.035386] [ohm:3345215:0]        ib_iface.c:1059 UCX  ERROR ibv_create_cq(cqe=256) failed: Connection timed out


           ************************************************************
           *        Program running with 64 parallel MPI-processes    *
           *              working on a common directory               *
           ************************************************************
------------------------------------------------------------------------------
                             ORCA STARTUP CALCULATIONS
                           -- RI-GTO INTEGRALS CHOSEN --
------------------------------------------------------------------------------
------------------------------------------------------------------------------
                   ___                                                        
                  /   \      - P O W E R E D   B Y -                         
                 /     \                                                     
                 |  |  |   _    _      __       _____    __    __             
                 |  |  |  | |  | |    /  \     |  _  \  |  |  /  |          
                  \  \/   | |  | |   /    \    | | | |  |  | /  /          
                 / \  \   | |__| |  /  /\  \   | |_| |  |  |/  /          
                |  |  |   |  __  | /  /__\  \  |    /   |      \           
                |  |  |   | |  | | |   __   |  |    \   |  |\   \          
                \     /   | |  | | |  |  |  |  | |\  \  |  | \   \       
                 \___/    |_|  |_| |__|  |__|  |_| \__\ |__|  \__/        
                                                                              
                      - O R C A' S   B I G   F R I E N D -                    
                                      &                                       
                       - I N T E G R A L  F E E D E R -                       
                                                                              
 v1 FN, 2020, v2 2021, v3 2022-2024                                           
------------------------------------------------------------------------------


----------------------
SHARK INTEGRAL PACKAGE
----------------------

Number of atoms                             ...      7
Number of basis functions                   ...    182
Number of shells                            ...     68
Maximum angular momentum                    ...      3
Integral batch strategy                     ... SHARK/LIBINT Hybrid
RI-J (if used) integral strategy            ... SPLIT-RIJ (Revised 2003 algorithm where possible)
Printlevel                                  ...      1
Contraction scheme used                     ... SEGMENTED contraction
Prescreening option                         ... SCHWARTZ
   Thresh                                   ... 2.500e-11
   Tcut                                     ... 2.500e-12
   Tpresel                                  ... 2.500e-12 
Coulomb Range Separation                    ... NOT USED
Exchange Range Separation                   ... Long Range
   Mu parameter                             ... 3.000e-01
   Scaling (regular/separated)              ... 1.500e-01 8.500e-01
Multipole approximations                    ... NOT USED
Finite Nucleus Model                        ... NOT USED
CABS basis                                  ... NOT available
Auxiliary Coulomb fitting basis             ... AVAILABLE
   # of basis functions in Aux-J            ...    191
   # of shells in Aux-J                     ...     65
   Maximum angular momentum in Aux-J        ...      4
Auxiliary J/K fitting basis                 ... NOT available
Auxiliary Correlation fitting basis         ... NOT available
Auxiliary 'external' fitting basis          ... NOT available

Checking pre-screening integrals            ... done (  0.0 sec) Dimension = 68
Check shell pair data                       ... done (  0.0 sec)
Shell pair information
Shell pair cut-off parameter TPreSel        ...   2.5e-12
Total number of shell pairs                 ...      2346
Shell pairs after pre-screening             ...      2329
Total number of primitive shell pairs       ...      5434
Primitive shell pairs kept                  ...      4822
          la=0 lb=0:    455 shell pairs
          la=1 lb=0:    657 shell pairs
          la=1 lb=1:    253 shell pairs
          la=2 lb=0:    387 shell pairs
          la=2 lb=1:    285 shell pairs
          la=2 lb=2:     91 shell pairs
          la=3 lb=0:     90 shell pairs
          la=3 lb=1:     66 shell pairs
          la=3 lb=2:     39 shell pairs
          la=3 lb=3:      6 shell pairs

Calculating one electron integrals          ... done (  0.0 sec)
Calculating RI/J V-Matrix + Cholesky decomp.... done (  0.0 sec)
Calculating Nuclear repulsion               ... done (  0.0 sec) ENN=     68.082578538584 Eh

Diagonalization of the overlap matrix:
Smallest eigenvalue                        ... 1.759e-05
Time for diagonalization                   ...    0.004 sec
Threshold for overlap eigenvalues          ... 1.000e-07
Number of eigenvalues below threshold      ... 0
Time for construction of square roots      ...    0.003 sec
Total time needed                          ...    0.009 sec

-------------------
DFT GRID GENERATION
-------------------

General Integration Accuracy     IntAcc      ... 4.388
Radial Grid Type                 RadialGrid  ... OptM3 with GC (2021)
Angular Grid (max. ang.)         AngularGrid ... 4 (Lebedev-302)
Angular grid pruning method      GridPruning ... 4 (adaptive)
Weight generation scheme         WeightScheme... mBecke (2022)
Basis function cutoff            BFCut       ... 1.0000e-11
Integration weight cutoff        WCut        ... 1.0000e-14
Partially contracted basis set               ... off
Rotationally invariant grid construction     ... off
Angular grids for H and He will be reduced by one unit
Diffuse basis detected: some atoms will have their outermost
                        angular grid increased by 1.

Total number of grid points                  ...    33166
Total number of batches                      ...      522
Average number of points per batch           ...       63
Average number of grid points per atom       ...     4738

--------------------
COSX GRID GENERATION
--------------------

GRIDX 1
-------
General Integration Accuracy     IntAcc      ... 3.816
Radial Grid Type                 RadialGrid  ... OptM3 with GC (2021)
Angular Grid (max. ang.)         AngularGrid ... 1 (Lebedev-50)
Angular grid pruning method      GridPruning ... 4 (adaptive)
Weight generation scheme         WeightScheme... mBecke (2022)
Basis function cutoff            BFCut       ... 1.0000e-11
Integration weight cutoff        WCut        ... 1.0000e-14
Partially contracted basis set               ... on
Rotationally invariant grid construction     ... off
Angular grids for H and He will be reduced by one unit
Diffuse basis detected: some atoms will have their outermost
                        angular grid increased by 1.

Total number of grid points                  ...     4177
Total number of batches                      ...       36
Average number of points per batch           ...      116
Average number of grid points per atom       ...      597
UseSFitting                                  ... on

GRIDX 2
-------
General Integration Accuracy     IntAcc      ... 4.020
Radial Grid Type                 RadialGrid  ... OptM3 with GC (2021)
Angular Grid (max. ang.)         AngularGrid ... 2 (Lebedev-110)
Angular grid pruning method      GridPruning ... 4 (adaptive)
Weight generation scheme         WeightScheme... mBecke (2022)
Basis function cutoff            BFCut       ... 1.0000e-11
Integration weight cutoff        WCut        ... 1.0000e-14
Partially contracted basis set               ... on
Rotationally invariant grid construction     ... off
Angular grids for H and He will be reduced by one unit
Diffuse basis detected: some atoms will have their outermost
                        angular grid increased by 1.

Total number of grid points                  ...    10284
Total number of batches                      ...       83
Average number of points per batch           ...      123
Average number of grid points per atom       ...     1469
UseSFitting                                  ... on

GRIDX 3
-------
General Integration Accuracy     IntAcc      ... 4.338
Radial Grid Type                 RadialGrid  ... OptM3 with GC (2021)
Angular Grid (max. ang.)         AngularGrid ... 3 (Lebedev-194)
Angular grid pruning method      GridPruning ... 4 (adaptive)
Weight generation scheme         WeightScheme... mBecke (2022)
Basis function cutoff            BFCut       ... 1.0000e-11
Integration weight cutoff        WCut        ... 1.0000e-14
Partially contracted basis set               ... on
Rotationally invariant grid construction     ... off
Angular grids for H and He will be reduced by one unit
Diffuse basis detected: some atoms will have their outermost
                        angular grid increased by 1.

Total number of grid points                  ...    23176
Total number of batches                      ...      185
Average number of points per batch           ...      125
Average number of grid points per atom       ...     3311
UseSFitting                                  ... on
Initializing property integral containers    ... done (  0.0 sec)

SHARK setup successfully completed in   0.5 seconds

Maximum memory used throughout the entire STARTUP-calculation: 13.8 MB
[1741609710.176453] [ohm:3345412:0]        ib_iface.c:1059 UCX  ERROR ibv_create_cq(cqe=256) failed: Connection timed out
[1741609710.180800] [ohm:3345408:0]        ib_iface.c:1059 UCX  ERROR ibv_create_cq(cqe=256) failed: Connection timed out
[1741609710.184857] [ohm:3345406:0]        ib_iface.c:1059 UCX  ERROR ibv_create_cq(cqe=256) failed: Connection timed out
[1741609710.188001] [ohm:3345407:0]        ib_iface.c:1059 UCX  ERROR ibv_create_cq(cqe=256) failed: Connection timed out
[1741609710.205262] [ohm:3345417:0]        ib_iface.c:1059 UCX  ERROR ibv_create_cq(cqe=256) failed: Connection timed out
[1741609710.231615] [ohm:3345415:0]        ib_iface.c:1059 UCX  ERROR ibv_create_cq(cqe=256) failed: Connection timed out
[1741609710.234640] [ohm:3345409:0]        ib_iface.c:1059 UCX  ERROR ibv_create_cq(cqe=256) failed: Connection timed out
[1741609710.268176] [ohm:3345420:0]        ib_iface.c:1059 UCX  ERROR ibv_create_cq(cqe=256) failed: Connection timed out
[1741609710.276364] [ohm:3345465:0]        ib_iface.c:1059 UCX  ERROR ibv_create_cq(cqe=256) failed: Connection timed out
[1741609710.276875] [ohm:3345411:0]        ib_iface.c:1059 UCX  ERROR ibv_create_cq(cqe=256) failed: Connection timed out
[1741609710.277815] [ohm:3345419:0]        ib_iface.c:1059 UCX  ERROR ibv_create_cq(cqe=256) failed: Connection timed out
[1741609710.283175] [ohm:3345405:0]        ib_iface.c:1059 UCX  ERROR ibv_create_cq(cqe=256) failed: Connection timed out
[1741609710.287441] [ohm:3345414:0]        ib_iface.c:1059 UCX  ERROR ibv_create_cq(cqe=256) failed: Connection timed out
[1741609710.301515] [ohm:3345471:0]        ib_iface.c:1059 UCX  ERROR ibv_create_cq(cqe=256) failed: Connection timed out
[1741609710.310181] [ohm:3345424:0]        ib_iface.c:1059 UCX  ERROR ibv_create_cq(cqe=256) failed: Connection timed out
[1741609710.310255] [ohm:3345410:0]        ib_iface.c:1059 UCX  ERROR ibv_create_cq(cqe=256) failed: Connection timed out
[1741609710.314540] [ohm:3345413:0]        ib_iface.c:1059 UCX  ERROR ibv_create_cq(cqe=256) failed: Connection timed out
[1741609710.315184] [ohm:3345540:0]        ib_iface.c:1059 UCX  ERROR ibv_create_cq(cqe=256) failed: Connection timed out
[1741609710.338967] [ohm:3345492:0]        ib_iface.c:1059 UCX  ERROR ibv_create_cq(cqe=256) failed: Connection timed out
[1741609710.340345] [ohm:3345479:0]        ib_iface.c:1059 UCX  ERROR ibv_create_cq(cqe=256) failed: Connection timed out
[1741609710.341279] [ohm:3345418:0]        ib_iface.c:1059 UCX  ERROR ibv_create_cq(cqe=256) failed: Connection timed out
[1741609710.346300] [ohm:3345437:0]        ib_iface.c:1059 UCX  ERROR ibv_create_cq(cqe=256) failed: Connection timed out
[1741609710.351995] [ohm:3345452:0]        ib_iface.c:1059 UCX  ERROR ibv_create_cq(cqe=256) failed: Connection timed out
[1741609710.360345] [ohm:3345480:0]        ib_iface.c:1059 UCX  ERROR ibv_create_cq(cqe=256) failed: Connection timed out
[1741609710.360819] [ohm:3345530:0]        ib_iface.c:1059 UCX  ERROR ibv_create_cq(cqe=256) failed: Connection timed out
[1741609710.364366] [ohm:3345474:0]        ib_iface.c:1059 UCX  ERROR ibv_create_cq(cqe=256) failed: Connection timed out
[1741609710.364368] [ohm:3345525:0]        ib_iface.c:1059 UCX  ERROR ibv_create_cq(cqe=256) failed: Connection timed out
[1741609710.367312] [ohm:3345498:0]        ib_iface.c:1059 UCX  ERROR ibv_create_cq(cqe=256) failed: Connection timed out
[1741609710.371448] [ohm:3345478:0]        ib_iface.c:1059 UCX  ERROR ibv_create_cq(cqe=256) failed: Connection timed out
[1741609710.383253] [ohm:3345496:0]        ib_iface.c:1059 UCX  ERROR ibv_create_cq(cqe=256) failed: Connection timed out
[1741609710.391776] [ohm:3345534:0]        ib_iface.c:1059 UCX  ERROR ibv_create_cq(cqe=256) failed: Connection timed out
[1741609710.403883] [ohm:3345516:0]        ib_iface.c:1059 UCX  ERROR ibv_create_cq(cqe=256) failed: Connection timed out
[1741609710.419312] [ohm:3345546:0]        ib_iface.c:1059 UCX  ERROR ibv_create_cq(cqe=256) failed: Connection timed out
[1741609710.433249] [ohm:3345557:0]        ib_iface.c:1059 UCX  ERROR ibv_create_cq(cqe=256) failed: Connection timed out
[1741609710.438088] [ohm:3345542:0]        ib_iface.c:1059 UCX  ERROR ibv_create_cq(cqe=256) failed: Connection timed out
[1741609710.440233] [ohm:3345473:0]        ib_iface.c:1059 UCX  ERROR ibv_create_cq(cqe=256) failed: Connection timed out
[1741609710.443110] [ohm:3345434:0]        ib_iface.c:1059 UCX  ERROR ibv_create_cq(cqe=256) failed: Connection timed out
[1741609710.446624] [ohm:3345477:0]        ib_iface.c:1059 UCX  ERROR ibv_create_cq(cqe=256) failed: Connection timed out
[1741609710.447054] [ohm:3345450:0]        ib_iface.c:1059 UCX  ERROR ibv_create_cq(cqe=256) failed: Connection timed out
[1741609710.451761] [ohm:3345550:0]        ib_iface.c:1059 UCX  ERROR ibv_create_cq(cqe=256) failed: Connection timed out
[1741609710.462279] [ohm:3345505:0]        ib_iface.c:1059 UCX  ERROR ibv_create_cq(cqe=256) failed: Connection timed out
[1741609710.463590] [ohm:3345469:0]        ib_iface.c:1059 UCX  ERROR ibv_create_cq(cqe=256) failed: Connection timed out
[1741609710.468870] [ohm:3345486:0]        ib_iface.c:1059 UCX  ERROR ibv_create_cq(cqe=256) failed: Connection timed out
[1741609710.471798] [ohm:3345521:0]        ib_iface.c:1059 UCX  ERROR ibv_create_cq(cqe=256) failed: Connection timed out
[1741609710.472614] [ohm:3345523:0]        ib_iface.c:1059 UCX  ERROR ibv_create_cq(cqe=256) failed: Connection timed out
[1741609710.472904] [ohm:3345442:0]        ib_iface.c:1059 UCX  ERROR ibv_create_cq(cqe=256) failed: Connection timed out
[1741609710.479961] [ohm:3345454:0]        ib_iface.c:1059 UCX  ERROR ibv_create_cq(cqe=256) failed: Connection timed out
[1741609710.486382] [ohm:3345445:0]        ib_iface.c:1059 UCX  ERROR ibv_create_cq(cqe=256) failed: Connection timed out
[1741609710.488287] [ohm:3345537:0]        ib_iface.c:1059 UCX  ERROR ibv_create_cq(cqe=256) failed: Connection timed out
[1741609710.489894] [ohm:3345509:0]        ib_iface.c:1059 UCX  ERROR ibv_create_cq(cqe=256) failed: Connection timed out
[1741609710.491294] [ohm:3345489:0]        ib_iface.c:1059 UCX  ERROR ibv_create_cq(cqe=256) failed: Connection timed out
[1741609710.491330] [ohm:3345464:0]        ib_iface.c:1059 UCX  ERROR ibv_create_cq(cqe=256) failed: Connection timed out
[1741609710.492675] [ohm:3345475:0]        ib_iface.c:1059 UCX  ERROR ibv_create_cq(cqe=256) failed: Connection timed out
[1741609710.499201] [ohm:3345436:0]        ib_iface.c:1059 UCX  ERROR ibv_create_cq(cqe=256) failed: Connection timed out
[1741609710.500444] [ohm:3345458:0]        ib_iface.c:1059 UCX  ERROR ibv_create_cq(cqe=256) failed: Connection timed out
[1741609710.506133] [ohm:3345518:0]        ib_iface.c:1059 UCX  ERROR ibv_create_cq(cqe=256) failed: Connection timed out
[1741609710.506864] [ohm:3345472:0]        ib_iface.c:1059 UCX  ERROR ibv_create_cq(cqe=256) failed: Connection timed out
[1741609710.506887] [ohm:3345460:0]        ib_iface.c:1059 UCX  ERROR ibv_create_cq(cqe=256) failed: Connection timed out
[1741609710.507658] [ohm:3345543:0]        ib_iface.c:1059 UCX  ERROR ibv_create_cq(cqe=256) failed: Connection timed out
[1741609710.507947] [ohm:3345483:0]        ib_iface.c:1059 UCX  ERROR ibv_create_cq(cqe=256) failed: Connection timed out
[1741609710.507914] [ohm:3345470:0]        ib_iface.c:1059 UCX  ERROR ibv_create_cq(cqe=256) failed: Connection timed out
[1741609710.508633] [ohm:3345439:0]        ib_iface.c:1059 UCX  ERROR ibv_create_cq(cqe=256) failed: Connection timed out
[1741609710.508648] [ohm:3345476:0]        ib_iface.c:1059 UCX  ERROR ibv_create_cq(cqe=256) failed: Connection timed out
[1741609710.510073] [ohm:3345416:0]        ib_iface.c:1059 UCX  ERROR ibv_create_cq(cqe=256) failed: Connection timed out


           ************************************************************
           *        Program running with 64 parallel MPI-processes    *
           *              working on a common directory               *
           ************************************************************
-------------------------------------------------------------------------------
                                 ORCA GUESS
                   Start orbitals & Density for SCF / CASSCF
-------------------------------------------------------------------------------

------------
SCF SETTINGS
------------
Hamiltonian:
 Density Functional     Method          .... DFT(GTOs)
  Functional kind                       .... Exchange-Correlation
  Functional name                       .... wB97M-V exchange-correlation functional
  Functional family                     .... Hybrid MGGA
  Functional refs                              
    [ 0] N. Mardirossian and M. Head-Gordon.,  J. Chem. Phys. 144, 214110 (2016), doi: 10.1063/1.4952647
  Fraction of HF Exchange (short range) .... 0.1500
  Fraction of HF Exchange (long range)  .... 1.0000
  Range separation parameter mu         .... 0.3000
  Functional external parameters        .... 17
    Parameter  0 _cx00      =  8.500000e-01 : u^00 coefficient for exchange
    Parameter  1 _cx01      =  1.007000e+00 : u^01 coefficient for exchange
    Parameter  2 _cx10      =  2.590000e-01 : u^10 coefficient for exchange
    Parameter  3 _css00     =  4.430000e-01 : u^00 coefficient for same-spin correlation
    Parameter  4 _css04     = -1.437000e+00 : u^04 coefficient for same-spin correlation
    Parameter  5 _css10     = -4.535000e+00 : u^10 coefficient for same-spin correlation
    Parameter  6 _css20     = -3.390000e+00 : u^20 coefficient for same-spin correlation
    Parameter  7 _css43     =  4.278000e+00 : u^43 coefficient for same-spin correlation
    Parameter  8 _cos00     =  1.000000e+00 : u^00 coefficient for opposite-spin correlation
    Parameter  9 _cos10     =  1.358000e+00 : u^10 coefficient for opposite-spin correlation
    Parameter 10 _cos20     =  2.924000e+00 : u^20 coefficient for opposite-spin correlation
    Parameter 11 _cos21     = -8.812000e+00 : u^21 coefficient for opposite-spin correlation
    Parameter 12 _cos60     = -1.390000e+00 : u^60 coefficient for opposite-spin correlation
    Parameter 13 _cos61     =  9.142000e+00 : u^61 coefficient for opposite-spin correlation
    Parameter 14 _alpha     =  1.000000e+00 : fraction of HF exchange
    Parameter 15 _beta      = -8.500000e-01 : fraction of short-range exchange
    Parameter 16 _omega     =  3.000000e-01 : range-separation constant
 Long-range corrected/Screened/Range-Separated Hybrid DFT is turned on
   Amount of maximum screened exact exchange              ....  0.850000
   Range separation parameter mu (erf(mu*r12)/r12)        ....  0.300000
 RI-approximation to the Coulomb term is turned on
   Number of AuxJ basis functions       .... 191
   RIJ-COSX (HFX calculated with COS-X)).... on


General Settings:
 Integral files         IntName         .... orca
 Hartree-Fock type      HFTyp           .... UHF
 Total Charge           Charge          ....    0
 Multiplicity           Mult            ....    3
 Number of Electrons    NEL             ....   24
 Basis Dimension        Dim             ....  182
 Nuclear Repulsion      ENuc            ....     68.0825785386 Eh

Convergence Acceleration:
 AO-DIIS                CNVDIIS         .... on
   Start iteration      DIISMaxIt       ....    12
   Startup error        DIISStart       ....  0.200000
   # of expansion vecs  DIISMaxEq       ....     5
   Bias factor          DIISBfac        ....   1.050
   Max. coefficient     DIISMaxC        ....  10.000
 MO-DIIS                CNVKDIIS        .... off
 Trust-Rad. Augm. Hess. CNVTRAH         .... auto
   Auto Start mean grad. ratio tolernc. ....  1.125000
   Auto Start start iteration           ....    50
   Auto Start num. interpolation iter.  ....    10
   Max. Number of Micro iterations      ....    24
   Max. Number of Macro iterations      .... Maxiter - #DIIS iter
   Number of Davidson start vectors     ....     2
   Converg. threshold    (grad. norm)   ....   1.000e-05
   Grad. Scal. Fac. for Micro threshold ....   0.100
   Minimum threshold for Micro iter.    ....   1.000e-02
   NR start threshold (gradient norm)   ....   1.000e-04
   Initial trust radius                 ....   0.400
   Minimum AH scaling param. (alpha)    ....   1.000
   Maximum AH scaling param. (alpha)    .... 1000.000
   Quad. conv. algorithm                .... NR
   White noise on init. David. guess    .... on
   Maximum white noise                  ....   0.010
   Pseudo random numbers                .... off
   Inactive MOs                         .... canonical
   Orbital update algorithm             .... Taylor
   Preconditioner                       .... Diag
   Full preconditioner red. dimension   ....   250
 SOSCF                  CNVSOSCF        .... on
   Start iteration      SOSCFMaxIt      ....   150
   Startup grad/error   SOSCFStart      ....  0.003300
   Hessian update       SOSCFHessUp     .... L-BFGS
 Level Shifting         CNVShift        .... on
   Level shift para.    LevelShift      ....    0.2500
   Turn off err/grad.   ShiftErr        ....    0.0010
 Zerner damping         CNVZerner       .... off
 Static damping         CNVDamp         .... on
   Fraction old density DampFac         ....    0.7000
   Max. Damping (<1)    DampMax         ....    0.9800
   Min. Damping (>=0)   DampMin         ....    0.0000
   Turn off err/grad.   DampErr         ....    0.1000

SCF Procedure:
 Maximum # iterations   MaxIter         ....   125
 SCF integral mode      SCFMode         .... Direct
   Integral package                     .... SHARK and LIBINT hybrid scheme
 Reset frequency        DirectResetFreq ....    20
 Integral Threshold     Thresh          ....  2.500e-11 Eh
 Primitive CutOff       TCut            ....  2.500e-12 Eh

Convergence Tolerance:
 Convergence Check Mode ConvCheckMode   .... Total+1el-Energy
 Convergence forced     ConvForced      .... 1
 Energy Change          TolE            ....  1.000e-08 Eh
 1-El. energy change                    ....  1.000e-05 Eh
 Orbital Gradient       TolG            ....  1.000e-05
 Orbital Rotation angle TolX            ....  1.000e-05
 DIIS Error             TolErr          ....  5.000e-07

------------------------------
INITIAL GUESS: MODEL POTENTIAL
------------------------------
Loading Hartree-Fock densities                     ... done
Calculating cut-offs                               ... done
Initializing the effective Hamiltonian             ... done
Setting up the integral package (SHARK)            ... done
Starting the Coulomb interaction                   ... done (   0.0 sec)
Making the grid                                    ... done (   0.0 sec)
Mapping shells                                     ... done
Starting the XC term evaluation                    ... done (   0.0 sec)
  promolecular density results
     # of electrons  =     23.996940774
     EX              =    -19.456124562
     EC              =     -0.765287512
     EX+EC           =    -20.221412075
Transforming the Hamiltonian                       ... done (   0.0 sec)
Diagonalizing the Hamiltonian                      ... done (   0.0 sec)
Back transforming the eigenvectors                 ... done (   0.0 sec)
Now organizing SCF variables                       ... done
                      ------------------
                      INITIAL GUESS DONE (   0.1 sec)
                      ------------------
             **** ENERGY FILE WAS UPDATED (orca.en.tmp) ****
Finished Guess after   1.7 sec
Maximum memory used throughout the entire GUESS-calculation: 9.5 MB
[1741609712.364211] [ohm:3345748:0]        ib_iface.c:1059 UCX  ERROR ibv_create_cq(cqe=256) failed: Connection timed out
[1741609712.367749] [ohm:3345752:0]        ib_iface.c:1059 UCX  ERROR ibv_create_cq(cqe=256) failed: Connection timed out
[1741609712.370650] [ohm:3345764:0]        ib_iface.c:1059 UCX  ERROR ibv_create_cq(cqe=256) failed: Connection timed out
[1741609712.394294] [ohm:3345750:0]        ib_iface.c:1059 UCX  ERROR ibv_create_cq(cqe=256) failed: Connection timed out
[1741609712.413234] [ohm:3345758:0]        ib_iface.c:1059 UCX  ERROR ibv_create_cq(cqe=256) failed: Connection timed out
[1741609712.419792] [ohm:3345757:0]        ib_iface.c:1059 UCX  ERROR ibv_create_cq(cqe=256) failed: Connection timed out
[1741609712.421424] [ohm:3345823:0]        ib_iface.c:1059 UCX  ERROR ibv_create_cq(cqe=256) failed: Connection timed out
[1741609712.432725] [ohm:3345760:0]        ib_iface.c:1059 UCX  ERROR ibv_create_cq(cqe=256) failed: Connection timed out
[1741609712.434381] [ohm:3345783:0]        ib_iface.c:1059 UCX  ERROR ibv_create_cq(cqe=256) failed: Connection timed out
[1741609712.437734] [ohm:3345756:0]        ib_iface.c:1059 UCX  ERROR ibv_create_cq(cqe=256) failed: Connection timed out
[1741609712.441386] [ohm:3345754:0]        ib_iface.c:1059 UCX  ERROR ibv_create_cq(cqe=256) failed: Connection timed out
[1741609712.444778] [ohm:3345751:0]        ib_iface.c:1059 UCX  ERROR ibv_create_cq(cqe=256) failed: Connection timed out
[1741609712.456889] [ohm:3345894:0]        ib_iface.c:1059 UCX  ERROR ibv_create_cq(cqe=256) failed: Connection timed out
[1741609712.465213] [ohm:3345766:0]        ib_iface.c:1059 UCX  ERROR ibv_create_cq(cqe=256) failed: Connection timed out
[1741609712.476774] [ohm:3345863:0]        ib_iface.c:1059 UCX  ERROR ibv_create_cq(cqe=256) failed: Connection timed out
[1741609712.490410] [ohm:3345898:0]        ib_iface.c:1059 UCX  ERROR ibv_create_cq(cqe=256) failed: Connection timed out
[1741609712.495040] [ohm:3345856:0]        ib_iface.c:1059 UCX  ERROR ibv_create_cq(cqe=256) failed: Connection timed out
[1741609712.501570] [ohm:3345903:0]        ib_iface.c:1059 UCX  ERROR ibv_create_cq(cqe=256) failed: Connection timed out
[1741609712.507318] [ohm:3345869:0]        ib_iface.c:1059 UCX  ERROR ibv_create_cq(cqe=256) failed: Connection timed out
[1741609712.528664] [ohm:3345848:0]        ib_iface.c:1059 UCX  ERROR ibv_create_cq(cqe=256) failed: Connection timed out
[1741609712.529988] [ohm:3345755:0]        ib_iface.c:1059 UCX  ERROR ibv_create_cq(cqe=256) failed: Connection timed out
[1741609712.531610] [ohm:3345765:0]        ib_iface.c:1059 UCX  ERROR ibv_create_cq(cqe=256) failed: Connection timed out
[1741609712.539208] [ohm:3345841:0]        ib_iface.c:1059 UCX  ERROR ibv_create_cq(cqe=256) failed: Connection timed out
[1741609712.539834] [ohm:3345852:0]        ib_iface.c:1059 UCX  ERROR ibv_create_cq(cqe=256) failed: Connection timed out
[1741609712.543241] [ohm:3345861:0]        ib_iface.c:1059 UCX  ERROR ibv_create_cq(cqe=256) failed: Connection timed out
[1741609712.543743] [ohm:3345781:0]        ib_iface.c:1059 UCX  ERROR ibv_create_cq(cqe=256) failed: Connection timed out
[1741609712.543719] [ohm:3345843:0]        ib_iface.c:1059 UCX  ERROR ibv_create_cq(cqe=256) failed: Connection timed out
[1741609712.557054] [ohm:3345785:0]        ib_iface.c:1059 UCX  ERROR ibv_create_cq(cqe=256) failed: Connection timed out
[1741609712.581437] [ohm:3345814:0]        ib_iface.c:1059 UCX  ERROR ibv_create_cq(cqe=256) failed: Connection timed out
[1741609712.592121] [ohm:3345749:0]        ib_iface.c:1059 UCX  ERROR ibv_create_cq(cqe=256) failed: Connection timed out
[1741609712.592576] [ohm:3345835:0]        ib_iface.c:1059 UCX  ERROR ibv_create_cq(cqe=256) failed: Connection timed out
[1741609712.593617] [ohm:3345812:0]        ib_iface.c:1059 UCX  ERROR ibv_create_cq(cqe=256) failed: Connection timed out
[1741609712.593614] [ohm:3345875:0]        ib_iface.c:1059 UCX  ERROR ibv_create_cq(cqe=256) failed: Connection timed out
[1741609712.594125] [ohm:3345872:0]        ib_iface.c:1059 UCX  ERROR ibv_create_cq(cqe=256) failed: Connection timed out
[1741609712.595580] [ohm:3345845:0]        ib_iface.c:1059 UCX  ERROR ibv_create_cq(cqe=256) failed: Connection timed out
[1741609712.596823] [ohm:3345769:0]        ib_iface.c:1059 UCX  ERROR ibv_create_cq(cqe=256) failed: Connection timed out
[1741609712.597750] [ohm:3345880:0]        ib_iface.c:1059 UCX  ERROR ibv_create_cq(cqe=256) failed: Connection timed out
[1741609712.597867] [ohm:3345761:0]        ib_iface.c:1059 UCX  ERROR ibv_create_cq(cqe=256) failed: Connection timed out
[1741609712.598200] [ohm:3345810:0]        ib_iface.c:1059 UCX  ERROR ibv_create_cq(cqe=256) failed: Connection timed out
[1741609712.598785] [ohm:3345753:0]        ib_iface.c:1059 UCX  ERROR ibv_create_cq(cqe=256) failed: Connection timed out
[1741609712.610325] [ohm:3345798:0]        ib_iface.c:1059 UCX  ERROR ibv_create_cq(cqe=256) failed: Connection timed out
[1741609712.622805] [ohm:3345889:0]        ib_iface.c:1059 UCX  ERROR ibv_create_cq(cqe=256) failed: Connection timed out
[1741609712.623509] [ohm:3345827:0]        ib_iface.c:1059 UCX  ERROR ibv_create_cq(cqe=256) failed: Connection timed out
[1741609712.634896] [ohm:3345817:0]        ib_iface.c:1059 UCX  ERROR ibv_create_cq(cqe=256) failed: Connection timed out
[1741609712.635799] [ohm:3345788:0]        ib_iface.c:1059 UCX  ERROR ibv_create_cq(cqe=256) failed: Connection timed out
[1741609712.640452] [ohm:3345772:0]        ib_iface.c:1059 UCX  ERROR ibv_create_cq(cqe=256) failed: Connection timed out
[1741609712.642051] [ohm:3345865:0]        ib_iface.c:1059 UCX  ERROR ibv_create_cq(cqe=256) failed: Connection timed out
[1741609712.643924] [ohm:3345830:0]        ib_iface.c:1059 UCX  ERROR ibv_create_cq(cqe=256) failed: Connection timed out
[1741609712.646204] [ohm:3345796:0]        ib_iface.c:1059 UCX  ERROR ibv_create_cq(cqe=256) failed: Connection timed out
[1741609712.652716] [ohm:3345776:0]        ib_iface.c:1059 UCX  ERROR ibv_create_cq(cqe=256) failed: Connection timed out
[1741609712.661665] [ohm:3345819:0]        ib_iface.c:1059 UCX  ERROR ibv_create_cq(cqe=256) failed: Connection timed out
[1741609712.668584] [ohm:3345762:0]        ib_iface.c:1059 UCX  ERROR ibv_create_cq(cqe=256) failed: Connection timed out
[1741609712.672241] [ohm:3345884:0]        ib_iface.c:1059 UCX  ERROR ibv_create_cq(cqe=256) failed: Connection timed out
[1741609712.675464] [ohm:3345808:0]        ib_iface.c:1059 UCX  ERROR ibv_create_cq(cqe=256) failed: Connection timed out
[1741609712.676597] [ohm:3345833:0]        ib_iface.c:1059 UCX  ERROR ibv_create_cq(cqe=256) failed: Connection timed out
[1741609712.687006] [ohm:3345804:0]        ib_iface.c:1059 UCX  ERROR ibv_create_cq(cqe=256) failed: Connection timed out
[1741609712.684182] [ohm:3345763:0]        ib_iface.c:1059 UCX  ERROR ibv_create_cq(cqe=256) failed: Connection timed out
[1741609712.686595] [ohm:3345767:0]        ib_iface.c:1059 UCX  ERROR ibv_create_cq(cqe=256) failed: Connection timed out
[1741609712.676923] [ohm:3345773:0]        ib_iface.c:1059 UCX  ERROR ibv_create_cq(cqe=256) failed: Connection timed out
[1741609712.687760] [ohm:3345759:0]        ib_iface.c:1059 UCX  ERROR ibv_create_cq(cqe=256) failed: Connection timed out
[1741609712.684323] [ohm:3345791:0]        ib_iface.c:1059 UCX  ERROR ibv_create_cq(cqe=256) failed: Connection timed out
[1741609712.685237] [ohm:3345801:0]        ib_iface.c:1059 UCX  ERROR ibv_create_cq(cqe=256) failed: Connection timed out
[1741609712.678986] [ohm:3345768:0]        ib_iface.c:1059 UCX  ERROR ibv_create_cq(cqe=256) failed: Connection timed out
[1741609712.687543] [ohm:3345790:0]        ib_iface.c:1059 UCX  ERROR ibv_create_cq(cqe=256) failed: Connection timed out


           ************************************************************
           *        Program running with 64 parallel MPI-processes    *
           *              working on a common directory               *
           ************************************************************

-------------------------------------------------------------------------------------------
                                      ORCA LEAN-SCF
                              memory conserving SCF solver
-------------------------------------------------------------------------------------------

----------------------------------------D-I-I-S--------------------------------------------
Iteration    Energy (Eh)           Delta-E    RMSDP     MaxDP     DIISErr   Damp  Time(sec)
-------------------------------------------------------------------------------------------
               ***  Starting incremental Fock matrix formation  ***
    1    -153.7091066386761611     0.00e+00  8.38e-04  2.12e-02  7.05e-02  0.700   0.3
    2    -153.7343153577465671    -2.52e-02  7.55e-04  1.95e-02  4.04e-02  0.700   0.3
                               ***Turning on AO-DIIS***
    3    -153.7485123588169529    -1.42e-02  6.19e-04  1.79e-02  2.14e-02  0.700   0.3
    4    -153.7573988139571668    -8.89e-03  1.55e-03  4.82e-02  1.60e-02  0.000   0.3
    5    -153.7783763952932645    -2.10e-02  1.61e-04  5.97e-03  4.94e-03  0.000   0.3
                              *** Initializing SOSCF ***
---------------------------------------S-O-S-C-F--------------------------------------
Iteration    Energy (Eh)           Delta-E    RMSDP     MaxDP     MaxGrad    Time(sec)
--------------------------------------------------------------------------------------
    6    -153.7789164968183684    -5.40e-04  9.86e-05  3.47e-03  2.99e-03     0.3
               *** Restarting incremental Fock matrix formation ***
    7    -153.7791711942983568    -2.55e-04  5.12e-05  2.02e-03  2.65e-03     0.3
    8    -153.7792569928307387    -8.58e-05  6.29e-05  2.36e-03  1.34e-03     0.3
    9    -153.7793133987000829    -5.64e-05  2.18e-05  9.09e-04  8.83e-04     0.3
   10    -153.7793205417306126    -7.14e-06  9.53e-05  2.98e-03  8.52e-04     0.3
   11    -153.7793461816862077    -2.56e-05  7.49e-05  3.24e-03  6.35e-04     0.3
   12    -153.7793658775291590    -1.97e-05  1.15e-04  5.05e-03  5.48e-04     0.3
   13    -153.7793886861985868    -2.28e-05  5.77e-05  2.23e-03  5.31e-04     0.3
   14    -153.7793970849782568    -8.40e-06  1.45e-05  6.72e-04  3.03e-04     0.3
   15    -153.7793989976074442    -1.91e-06  5.50e-06  1.80e-04  1.30e-04     0.3
   16    -153.7793992410118449    -2.43e-07  3.02e-06  1.00e-04  4.53e-05     0.3
   17    -153.7793992830889067    -4.21e-08  1.14e-06  4.84e-05  2.46e-05     0.3
   18    -153.7793992924817701    -9.39e-09  5.94e-07  1.93e-05  9.32e-06     0.3
                 **** Energy Check signals convergence ****

               *****************************************************
               *                     SUCCESS                       *
               *           SCF CONVERGED AFTER  18 CYCLES          *
               *****************************************************

Recomputing exchange energy using gridx3       ... done (    0.180 sec)
Old exchange energy                            :     -6.195323858 Eh
New exchange energy                            :     -6.195334298 Eh
Exchange energy change after final integration :     -0.000010440 Eh
Total energy after final integration           :   -153.779409732 Eh
             **** ENERGY FILE WAS UPDATED (orca.en.tmp) ****

----------------
TOTAL SCF ENERGY
----------------

Total Energy       :       -153.77940973243568 Eh           -4184.55048 eV

Components:
Nuclear Repulsion  :         68.08257853858410 Eh            1852.62115 eV
Electronic Energy  :       -221.86197783106587 Eh           -6037.17134 eV
One Electron Energy:       -342.75696223569901 Eh           -9326.89111 eV
Two Electron Energy:        120.89498440463315 Eh            3289.71977 eV

Virial components:
Potential Energy   :       -307.06545868226732 Eh           -8355.67593 eV
Kinetic Energy     :        153.28604894983164 Eh            4171.12545 eV
Virial Ratio       :          2.00321856285020

DFT components:
N(Alpha)           :       12.999982122913 electrons
N(Beta)            :       10.999980330101 electrons
N(Total)           :       23.999962453013 electrons
E(XC)              :      -14.689207493790 Eh       

---------------
SCF CONVERGENCE
---------------

  Last Energy change         ...    9.3929e-09  Tolerance :   1.0000e-08
  Last MAX-Density change    ...    1.9258e-05  Tolerance :   1.0000e-07
  Last RMS-Density change    ...    5.9419e-07  Tolerance :   5.0000e-09
  Last DIIS Error            ...    2.9919e-03  Tolerance :   5.0000e-07
  Last Orbital Gradient      ...    9.3159e-06  Tolerance :   1.0000e-05
  Last Orbital Rotation      ...    1.2404e-04  Tolerance :   1.0000e-05


----------------------
UHF SPIN CONTAMINATION
----------------------

Warning: in a DFT calculation there is little theoretical justification to 
         calculate <S**2> as in Hartree-Fock theory. We will do it anyways
         but you should keep in mind that the values have only limited relevance

Expectation value of <S**2>     :     2.008140
Ideal value S*(S+1) for S=1.0   :     2.000000
Deviation                       :     0.008140

----------------
ORBITAL ENERGIES
----------------
                 SPIN UP ORBITALS
  NO   OCC          E(Eh)            E(eV) 
   0   1.0000     -19.387551      -527.5621 
   1   1.0000     -10.411946      -283.3235 
   2   1.0000     -10.368605      -282.1441 
   3   1.0000      -1.152039       -31.3486 
   4   1.0000      -0.888143       -24.1676 
   5   1.0000      -0.735328       -20.0093 
   6   1.0000      -0.612467       -16.6661 
   7   1.0000      -0.589395       -16.0383 
   8   1.0000      -0.547641       -14.9021 
   9   1.0000      -0.507493       -13.8096 
  10   1.0000      -0.445114       -12.1122 
  11   1.0000      -0.420128       -11.4323 
  12   1.0000      -0.322784        -8.7834 
  13   0.0000       0.041424         1.1272 
  14   0.0000       0.060946         1.6584 
  15   0.0000       0.078925         2.1477 
  16   0.0000       0.087526         2.3817 
  17   0.0000       0.111475         3.0334 
  18   0.0000       0.122930         3.3451 
  19   0.0000       0.134699         3.6653 
  20   0.0000       0.139576         3.7981 
  21   0.0000       0.175463         4.7746 
  22   0.0000       0.188476         5.1287 
  23   0.0000       0.193484         5.2650 

                 SPIN DOWN ORBITALS
  NO   OCC          E(Eh)            E(eV) 
   0   1.0000     -19.362807      -526.8888 
   1   1.0000     -10.413292      -283.3601 
   2   1.0000     -10.355705      -281.7930 
   3   1.0000      -1.095843       -29.8194 
   4   1.0000      -0.854821       -23.2609 
   5   1.0000      -0.708524       -19.2799 
   6   1.0000      -0.586581       -15.9617 
   7   1.0000      -0.549826       -14.9615 
   8   1.0000      -0.522304       -14.2126 
   9   1.0000      -0.484288       -13.1782 
  10   1.0000      -0.387637       -10.5481 
  11   0.0000      -0.045674        -1.2429 
  12   0.0000      -0.006362        -0.1731 
  13   0.0000       0.040610         1.1051 
  14   0.0000       0.061278         1.6675 
  15   0.0000       0.079023         2.1503 
  16   0.0000       0.088774         2.4157 
  17   0.0000       0.112894         3.0720 
  18   0.0000       0.124459         3.3867 
  19   0.0000       0.137922         3.7530 
  20   0.0000       0.142084         3.8663 
  21   0.0000       0.181492         4.9387 
*Only the first 10 virtual orbitals were printed.

                    ********************************
                    * MULLIKEN POPULATION ANALYSIS *
                    ********************************

--------------------------------------------
MULLIKEN ATOMIC CHARGES AND SPIN POPULATIONS
--------------------------------------------
   0 O :   -0.326626    0.958638
   1 C :    0.127634    0.002823
   2 C :   -0.671494    0.835770
   3 H :    0.193843    0.047048
   4 H :    0.163368    0.113266
   5 H :    0.222536    0.016579
   6 H :    0.290739    0.025874
Sum of atomic charges         :   -0.0000000
Sum of atomic spin populations:    2.0000000

-----------------------------------------------------
MULLIKEN REDUCED ORBITAL CHARGES AND SPIN POPULATIONS
-----------------------------------------------------
CHARGE
  0 O s       :     3.992774  s :     3.992774
      pz      :     1.263499  p :     4.314119
      px      :     1.863377
      py      :     1.187243
      dz2     :     0.006812  d :     0.018657
      dxz     :     0.002836
      dyz     :     0.005524
      dx2y2   :     0.002018
      dxy     :     0.001467
      f0      :     0.000171  f :     0.001076
      f+1     :     0.000172
      f-1     :     0.000204
      f+2     :     0.000189
      f-2     :     0.000208
      f+3     :     0.000075
      f-3     :     0.000057

  1 C s       :     3.171219  s :     3.171219
      pz      :     0.782036  p :     2.538574
      px      :     0.928677
      py      :     0.827860
      dz2     :     0.028576  d :     0.152749
      dxz     :     0.016366
      dyz     :     0.050108
      dx2y2   :     0.007888
      dxy     :     0.049812
      f0      :     0.001426  f :     0.009825
      f+1     :     0.001195
      f-1     :     0.001600
      f+2     :     0.001486
      f-2     :     0.002009
      f+3     :     0.000845
      f-3     :     0.001263

  2 C s       :     3.621073  s :     3.621073
      pz      :     0.950654  p :     3.024620
      px      :     1.052955
      py      :     1.021011
      dz2     :     0.003854  d :     0.021705
      dxz     :     0.004522
      dyz     :     0.009916
      dx2y2   :     0.002863
      dxy     :     0.000550
      f0      :     0.000536  f :     0.004097
      f+1     :     0.000423
      f-1     :     0.000544
      f+2     :     0.000350
      f-2     :     0.000577
      f+3     :     0.000869
      f-3     :     0.000798

  3 H s       :     0.766461  s :     0.766461
      pz      :     0.007410  p :     0.037220
      px      :     0.019896
      py      :     0.009915
      dz2     :     0.000166  d :     0.002475
      dxz     :     0.000660
      dyz     :     0.000230
      dx2y2   :     0.000673
      dxy     :     0.000747

  4 H s       :     0.796738  s :     0.796738
      pz      :     0.016510  p :     0.037277
      px      :     0.001223
      py      :     0.019544
      dz2     :     0.000810  d :     0.002618
      dxz     :     0.000378
      dyz     :     0.000557
      dx2y2   :     0.000356
      dxy     :     0.000518

  5 H s       :     0.732199  s :     0.732199
      pz      :     0.022456  p :     0.043018
      px      :     0.006984
      py      :     0.013577
      dz2     :     0.000248  d :     0.002247
      dxz     :     0.000131
      dyz     :     0.000673
      dx2y2   :     0.000591
      dxy     :     0.000604

  6 H s       :     0.671564  s :     0.671564
      pz      :     0.014556  p :     0.035367
      px      :     0.011420
      py      :     0.009391
      dz2     :     0.000246  d :     0.002330
      dxz     :     0.000775
      dyz     :     0.000053
      dx2y2   :     0.000502
      dxy     :     0.000754


SPIN
  0 O s       :     0.002597  s :     0.002597
      pz      :     0.354207  p :     0.960713
      px      :     0.006431
      py      :     0.600075
      dz2     :    -0.003382  d :    -0.004529
      dxz     :    -0.000086
      dyz     :    -0.000329
      dx2y2   :    -0.000470
      dxy     :    -0.000261
      f0      :    -0.000024  f :    -0.000142
      f+1     :     0.000012
      f-1     :    -0.000125
      f+2     :    -0.000014
      f-2     :    -0.000040
      f+3     :     0.000026
      f-3     :     0.000022

  1 C s       :     0.013859  s :     0.013859
      pz      :    -0.060190  p :    -0.096184
      px      :    -0.006213
      py      :    -0.029781
      dz2     :     0.016753  d :     0.082363
      dxz     :     0.008834
      dyz     :     0.033194
      dx2y2   :     0.012942
      dxy     :     0.010640
      f0      :     0.000899  f :     0.002785
      f+1     :     0.000395
      f-1     :     0.000107
      f+2     :     0.000404
      f-2     :     0.000647
      f+3     :     0.000250
      f-3     :     0.000083

  2 C s       :    -0.028665  s :    -0.028665
      pz      :     0.766623  p :     0.876619
      px      :     0.033800
      py      :     0.076196
      dz2     :    -0.003920  d :    -0.011110
      dxz     :    -0.000842
      dyz     :    -0.001745
      dx2y2   :    -0.003515
      dxy     :    -0.001087
      f0      :    -0.000254  f :    -0.001073
      f+1     :    -0.000255
      f-1     :    -0.000278
      f+2     :    -0.000082
      f-2     :    -0.000091
      f+3     :    -0.000092
      f-3     :    -0.000022

  3 H s       :     0.044035  s :     0.044035
      pz      :    -0.000246  p :     0.003009
      px      :     0.003622
      py      :    -0.000367
      dz2     :     0.000012  d :     0.000004
      dxz     :    -0.000025
      dyz     :     0.000007
      dx2y2   :     0.000004
      dxy     :     0.000005

  4 H s       :     0.105255  s :     0.105255
      pz      :     0.004003  p :     0.007858
      px      :     0.000239
      py      :     0.003616
      dz2     :     0.000040  d :     0.000153
      dxz     :     0.000005
      dyz     :     0.000067
      dx2y2   :     0.000016
      dxy     :     0.000025

  5 H s       :    -0.006989  s :    -0.006989
      pz      :     0.019336  p :     0.022620
      px      :     0.001041
      py      :     0.002243
      dz2     :     0.000118  d :     0.000948
      dxz     :     0.000085
      dyz     :     0.000559
      dx2y2   :     0.000074
      dxy     :     0.000111

  6 H s       :     0.003320  s :     0.003320
      pz      :     0.017316  p :     0.021549
      px      :     0.001220
      py      :     0.003014
      dz2     :     0.000118  d :     0.001005
      dxz     :     0.000619
      dyz     :     0.000014
      dx2y2   :     0.000054
      dxy     :     0.000200



                     *******************************
                     * LOEWDIN POPULATION ANALYSIS *
                     *******************************

-------------------------------------------
LOEWDIN ATOMIC CHARGES AND SPIN POPULATIONS
-------------------------------------------
   0 O :    0.026214    0.901906
   1 C :   -0.245174    0.211819
   2 C :    0.218575    0.639474
   3 H :    0.025562    0.021932
   4 H :    0.043107    0.083462
   5 H :   -0.027016    0.070626
   6 H :   -0.041269    0.070782

----------------------------------------------------
LOEWDIN REDUCED ORBITAL CHARGES AND SPIN POPULATIONS
----------------------------------------------------
CHARGE
  0 O s       :     3.508447  s :     3.508447
      pz      :     1.303375  p :     4.205529
      px      :     1.726155
      py      :     1.175999
      dz2     :     0.075608  d :     0.256526
      dxz     :     0.051663
      dyz     :     0.061138
      dx2y2   :     0.029191
      dxy     :     0.038926
      f0      :     0.000634  f :     0.003284
      f+1     :     0.000432
      f-1     :     0.000680
      f+2     :     0.000636
      f-2     :     0.000594
      f+3     :     0.000144
      f-3     :     0.000163

  1 C s       :     2.656005  s :     2.656005
      pz      :     0.790728  p :     2.597510
      px      :     0.914746
      py      :     0.892036
      dz2     :     0.141406  d :     0.912202
      dxz     :     0.137602
      dyz     :     0.238512
      dx2y2   :     0.198035
      dxy     :     0.196646
      f0      :     0.009632  f :     0.079458
      f+1     :     0.011208
      f-1     :     0.013470
      f+2     :     0.012594
      f-2     :     0.014329
      f+3     :     0.007390
      f-3     :     0.010834

  2 C s       :     2.729642  s :     2.729642
      pz      :     0.721231  p :     2.605105
      px      :     0.953960
      py      :     0.929914
      dz2     :     0.037750  d :     0.420148
      dxz     :     0.041273
      dyz     :     0.065327
      dx2y2   :     0.170535
      dxy     :     0.105263
      f0      :     0.003123  f :     0.026529
      f+1     :     0.002264
      f-1     :     0.002811
      f+2     :     0.001851
      f-2     :     0.004283
      f+3     :     0.007029
      f-3     :     0.005169

  3 H s       :     0.687552  s :     0.687552
      pz      :     0.058467  p :     0.258238
      px      :     0.119752
      py      :     0.080019
      dz2     :     0.002895  d :     0.028648
      dxz     :     0.006294
      dyz     :     0.001900
      dx2y2   :     0.008738
      dxy     :     0.008821

  4 H s       :     0.665453  s :     0.665453
      pz      :     0.094003  p :     0.262068
      px      :     0.067497
      py      :     0.100569
      dz2     :     0.006431  d :     0.029371
      dxz     :     0.003891
      dyz     :     0.008228
      dx2y2   :     0.004684
      dxy     :     0.006137

  5 H s       :     0.722316  s :     0.722316
      pz      :     0.081286  p :     0.276685
      px      :     0.077840
      py      :     0.117560
      dz2     :     0.003343  d :     0.028015
      dxz     :     0.001596
      dyz     :     0.007473
      dx2y2   :     0.007830
      dxy     :     0.007773

  6 H s       :     0.720641  s :     0.720641
      pz      :     0.086495  p :     0.289904
      px      :     0.127695
      py      :     0.075715
      dz2     :     0.003561  d :     0.030723
      dxz     :     0.009443
      dyz     :     0.000648
      dx2y2   :     0.008647
      dxy     :     0.008424


SPIN
  0 O s       :     0.014142  s :     0.014142
      pz      :     0.316507  p :     0.873302
      px      :     0.011704
      py      :     0.545091
      dz2     :     0.006918  d :     0.014448
      dxz     :     0.000261
      dyz     :     0.001293
      dx2y2   :     0.004110
      dxy     :     0.001865
      f0      :     0.000067  f :     0.000014
      f+1     :     0.000014
      f-1     :    -0.000118
      f+2     :     0.000045
      f-2     :    -0.000025
      f+3     :     0.000017
      f-3     :     0.000015

  1 C s       :    -0.004738  s :    -0.004738
      pz      :    -0.010157  p :    -0.018336
      px      :    -0.006763
      py      :    -0.001416
      dz2     :     0.051518  d :     0.213459
      dxz     :     0.031864
      dyz     :     0.080494
      dx2y2   :     0.028543
      dxy     :     0.021041
      f0      :     0.005886  f :     0.021434
      f+1     :     0.003163
      f-1     :     0.001407
      f+2     :     0.003591
      f-2     :     0.004587
      f+3     :     0.002001
      f-3     :     0.000799

  2 C s       :     0.013064  s :     0.013064
      pz      :     0.549037  p :     0.627792
      px      :     0.026244
      py      :     0.052510
      dz2     :    -0.000144  d :    -0.000781
      dxz     :    -0.000033
      dyz     :    -0.000259
      dx2y2   :     0.001461
      dxy     :    -0.001807
      f0      :     0.000238  f :    -0.000601
      f+1     :    -0.000204
      f-1     :     0.000028
      f+2     :    -0.000141
      f-2     :    -0.000239
      f+3     :    -0.000159
      f-3     :    -0.000124

  3 H s       :     0.021073  s :     0.021073
      pz      :    -0.000720  p :     0.001193
      px      :     0.001779
      py      :     0.000135
      dz2     :    -0.000003  d :    -0.000334
      dxz     :    -0.000307
      dyz     :     0.000024
      dx2y2   :     0.000012
      dxy     :    -0.000060

  4 H s       :     0.071464  s :     0.071464
      pz      :     0.006013  p :     0.012216
      px      :    -0.000605
      py      :     0.006809
      dz2     :    -0.000083  d :    -0.000219
      dxz     :    -0.000078
      dyz     :     0.000046
      dx2y2   :    -0.000070
      dxy     :    -0.000034

  5 H s       :    -0.011524  s :    -0.011524
      pz      :     0.062541  p :     0.072889
      px      :     0.001815
      py      :     0.008534
      dz2     :     0.001346  d :     0.009261
      dxz     :     0.000878
      dyz     :     0.005767
      dx2y2   :     0.000564
      dxy     :     0.000707

  6 H s       :    -0.012344  s :    -0.012344
      pz      :     0.061821  p :     0.072916
      px      :     0.006002
      py      :     0.005094
      dz2     :     0.001440  d :     0.010210
      dxz     :     0.006857
      dyz     :     0.000069
      dx2y2   :     0.000725
      dxy     :     0.001120



                      *****************************
                      * MAYER POPULATION ANALYSIS *
                      *****************************

  NA   - Mulliken gross atomic population
  ZA   - Total nuclear charge
  QA   - Mulliken gross atomic charge
  VA   - Mayer's total valence
  BVA  - Mayer's bonded valence
  FA   - Mayer's free valence

  ATOM       NA         ZA         QA         VA         BVA        FA
  0 O      8.3266     8.0000    -0.3266     1.8303     1.0115     0.8188
  1 C      5.8724     6.0000     0.1276     3.4087     3.3949     0.0138
  2 C      6.6715     6.0000    -0.6715     3.4933     2.7847     0.7086
  3 H      0.8062     1.0000     0.1938     1.0180     1.0165     0.0015
  4 H      0.8366     1.0000     0.1634     1.0402     1.0286     0.0117
  5 H      0.7775     1.0000     0.2225     0.9723     0.9720     0.0004
  6 H      0.7093     1.0000     0.2907     0.9159     0.9157     0.0002

  Mayer bond orders larger than 0.100000
B(  0-O ,  1-C ) :   0.8103 B(  1-C ,  2-C ) :   0.7563 B(  1-C ,  3-H ) :   0.9671 
B(  1-C ,  4-H ) :   0.9557 B(  2-C ,  5-H ) :   1.0005 B(  2-C ,  6-H ) :   0.9350 


-------
TIMINGS
-------

Total SCF time: 0 days 0 hours 0 min 7 sec 

Total time                  ....       7.257 sec
Sum of individual times     ....       7.219 sec  ( 99.5%)

SCF preparation             ....       1.672 sec  ( 23.0%)
Fock matrix formation       ....       4.413 sec  ( 60.8%)
  Startup                   ....       0.073 sec  (  1.7% of F)
  Split-RI-J                ....       0.520 sec  ( 11.8% of F)
  Chain of spheres X        ....       2.387 sec  ( 54.1% of F)
  XC integration            ....       1.140 sec  ( 25.8% of F)
    XC Preparation          ....       0.000 sec  (  0.0% of XC)
    Basis function eval.    ....       0.059 sec  (  5.2% of XC)
    Density eval.           ....       0.212 sec  ( 18.6% of XC)
    XC-Functional eval.     ....       0.014 sec  (  1.2% of XC)
    XC-Potential eval.      ....       0.306 sec  ( 26.9% of XC)
Diagonalization             ....       0.000 sec  (  0.0%)
Density matrix formation    ....       0.137 sec  (  1.9%)
Total Energy calculation    ....       0.131 sec  (  1.8%)
Population analysis         ....       0.039 sec  (  0.5%)
Orbital Transformation      ....       0.092 sec  (  1.3%)
Orbital Orthonormalization  ....       0.000 sec  (  0.0%)
DIIS solution               ....       0.365 sec  (  5.0%)
SOSCF solution              ....       0.363 sec  (  5.0%)
Finished LeanSCF after   7.3 sec

[...]
[1741609730.553239] [ohm:3346911:0]        ib_iface.c:1059 UCX  ERROR ibv_create_cq(cqe=256) failed: Connection timed out
[1741609730.557666] [ohm:3346840:0]        ib_iface.c:1059 UCX  ERROR ibv_create_cq(cqe=256) failed: Connection timed out
[1741609730.558098] [ohm:3346890:0]        ib_iface.c:1059 UCX  ERROR ibv_create_cq(cqe=256) failed: Connection timed out
[1741609730.558420] [ohm:3346926:0]        ib_iface.c:1059 UCX  ERROR ibv_create_cq(cqe=256) failed: Connection timed out
[1741609730.560806] [ohm:3346946:0]        ib_iface.c:1059 UCX  ERROR ibv_create_cq(cqe=256) failed: Connection timed out
[1741609730.563431] [ohm:3346901:0]        ib_iface.c:1059 UCX  ERROR ibv_create_cq(cqe=256) failed: Connection timed out
[1741609730.564947] [ohm:3346883:0]        ib_iface.c:1059 UCX  ERROR ibv_create_cq(cqe=256) failed: Connection timed out
[1741609730.564979] [ohm:3346889:0]        ib_iface.c:1059 UCX  ERROR ibv_create_cq(cqe=256) failed: Connection timed out
[1741609730.566324] [ohm:3346930:0]        ib_iface.c:1059 UCX  ERROR ibv_create_cq(cqe=256) failed: Connection timed out
[1741609730.567557] [ohm:3346960:0]        ib_iface.c:1059 UCX  ERROR ibv_create_cq(cqe=256) failed: Connection timed out


           ************************************************************
           *        Program running with 64 parallel MPI-processes    *
           *              working on a common directory               *
           ************************************************************

------------------------------------------------------------------------------
                              ORCA PROPERTY CALCULATIONS
------------------------------------------------------------------------------

GBWName                                 ... orca.gbw
Number of atoms                         ...      7
Number of basis functions               ...    182
Max core memory                         ...   1024 MB

Electric properties:
Dipole moment                           ... YES
Quadrupole moment                       ...  NO
Static polarizability (Dipole/Dipole)   ...  NO
Static polarizability (Dipole/Quad.)    ...  NO
Static polarizability (Quad./Quad.)     ...  NO
Static polarizability (Velocity)        ...  NO

Atomic electric properties:
Dipole moment                           ...  NO
Quadrupole moment                       ...  NO
Static polarizability                   ...  NO

Choice of electric origin               ... Center of mass
Position of electric origin             ...     0.757744     0.129061     0.140843

General magnetic properties:
Magnetizability                         ...  NO

EPR properties:
g-Tensor (aka g-matrix)                 ...  NO
Zero-Field splitting spin-orbit         ...  NO
Zero-field splitting spin-spin          ...  NO
Hyperfine couplings                     ...  NO (   0 nuclei)
Quadrupole couplings                    ...  NO (   0 nuclei)
Contact density                         ...  NO (   0 nuclei)

NMR properties:
Chemical shifts                         ...  NO (   0 nuclei)
Spin-rotation constants                 ...  NO (   0 nuclei)
Spin-spin couplings                     ...  NO (   0 nuclei,    0 pairs)

Choice of magnetic origin               ... GIAO
Position of magnetic origin             ...     0.000000     0.000000     0.000000

Properties with geometric perturbations:
SCF Hessian                             ...  NO
IR spectrum                             ...  NO
VCD spectrum                            ...  NO
X-ray spectroscopy properties:
SCF XES/XAS/RIXS spectra                ...  NO


-------------
DIPOLE MOMENT
-------------

Method             : SCF
Type of density    : Electron Density
Multiplicity       :   3
Irrep              :   0
Energy             :  -153.7794097324356812 Eh
Relativity type    : 
Basis              : AO
                                X                 Y                 Z
Electronic contribution:     -0.170857507      -1.702666709      -1.559750639
Nuclear contribution   :      0.431282191       2.115109413       2.145628369
                        -----------------------------------------
Total Dipole Moment    :      0.260424684       0.412442704       0.585877730
                        -----------------------------------------
Magnitude (a.u.)       :      0.762353405
Magnitude (Debye)      :      1.937748361



--------------------
Rotational spectrum 
--------------------
 
Rotational constants in cm-1:             1.368029             0.371912             0.314266 
Rotational constants in MHz :         41012.470205         11149.654263          9421.471462 

Dipole components along the rotational axes: 
x,y,z [a.u.] :     0.608383    -0.457694     0.039618 
x,y,z [Debye]:     1.546385    -1.163366     0.100702 

 

-------------
DIPOLE MOMENT
-------------

Method             : TDA/CIS
Type of density    : Electron Density
Level              : Relaxed density
State              :   2
Multiplicity       :   3
Irrep              :   0
Energy             :     0.0000000000000000 Eh
Relativity type    : 
Basis              : AO
                                X                 Y                 Z
Electronic contribution:     -0.273515833      -1.291149200      -1.235351819
Nuclear contribution   :      0.431282191       2.115109413       2.145628369
                        -----------------------------------------
Total Dipole Moment    :      0.157766358       0.823960213       0.910276550
                        -----------------------------------------
Magnitude (a.u.)       :      1.237903087
Magnitude (Debye)      :      3.146499592



--------------------
Rotational spectrum 
--------------------
 
Rotational constants in cm-1:             1.368029             0.371912             0.314266 
Rotational constants in MHz :         41012.470205         11149.654263          9421.471462 

Dipole components along the rotational axes: 
x,y,z [a.u.] :     1.141876    -0.474986     0.053966 
x,y,z [Debye]:     2.902418    -1.207317     0.137170 

 

Dipole moment calculation done in   0.0 sec 

Maximum memory used throughout the entire PROP-calculation: 7.4 MB
[1741609732.278543] [ohm:3347146:0]        ib_iface.c:1059 UCX  ERROR ibv_create_cq(cqe=256) failed: Connection timed out
[1741609732.279019] [ohm:3347142:0]        ib_iface.c:1059 UCX  ERROR ibv_create_cq(cqe=256) failed: Connection timed out
[1741609732.294637] [ohm:3347141:0]        ib_iface.c:1059 UCX  ERROR ibv_create_cq(cqe=256) failed: Connection timed out
[1741609732.296133] [ohm:3347144:0]        ib_iface.c:1059 UCX  ERROR ibv_create_cq(cqe=256) failed: Connection timed out
[1741609732.301990] [ohm:3347145:0]        ib_iface.c:1059 UCX  ERROR ibv_create_cq(cqe=256) failed: Connection timed out
[1741609732.303964] [ohm:3347150:0]        ib_iface.c:1059 UCX  ERROR ibv_create_cq(cqe=256) failed: Connection timed out
[1741609732.304778] [ohm:3347175:0]        ib_iface.c:1059 UCX  ERROR ibv_create_cq(cqe=256) failed: Connection timed out
[1741609732.305074] [ohm:3347143:0]        ib_iface.c:1059 UCX  ERROR ibv_create_cq(cqe=256) failed: Connection timed out
[1741609732.306316] [ohm:3347153:0]        ib_iface.c:1059 UCX  ERROR ibv_create_cq(cqe=256) failed: Connection timed out
[1741609732.335174] [ohm:3347201:0]        ib_iface.c:1059 UCX  ERROR ibv_create_cq(cqe=256) failed: Connection timed out
[1741609732.342848] [ohm:3347169:0]        ib_iface.c:1059 UCX  ERROR ibv_create_cq(cqe=256) failed: Connection timed out
[1741609732.345679] [ohm:3347186:0]        ib_iface.c:1059 UCX  ERROR ibv_create_cq(cqe=256) failed: Connection timed out
[1741609732.363860] [ohm:3347271:0]        ib_iface.c:1059 UCX  ERROR ibv_create_cq(cqe=256) failed: Connection timed out
[1741609732.363917] [ohm:3347152:0]        ib_iface.c:1059 UCX  ERROR ibv_create_cq(cqe=256) failed: Connection timed out
[1741609732.370667] [ohm:3347197:0]        ib_iface.c:1059 UCX  ERROR ibv_create_cq(cqe=256) failed: Connection timed out
[1741609732.376221] [ohm:3347173:0]        ib_iface.c:1059 UCX  ERROR ibv_create_cq(cqe=256) failed: Connection timed out
[1741609732.379917] [ohm:3347172:0]        ib_iface.c:1059 UCX  ERROR ibv_create_cq(cqe=256) failed: Connection timed out
[1741609732.380676] [ohm:3347171:0]        ib_iface.c:1059 UCX  ERROR ibv_create_cq(cqe=256) failed: Connection timed out
[1741609732.383200] [ohm:3347221:0]        ib_iface.c:1059 UCX  ERROR ibv_create_cq(cqe=256) failed: Connection timed out
[1741609732.383308] [ohm:3347154:0]        ib_iface.c:1059 UCX  ERROR ibv_create_cq(cqe=256) failed: Connection timed out
[1741609732.395118] [ohm:3347177:0]        ib_iface.c:1059 UCX  ERROR ibv_create_cq(cqe=256) failed: Connection timed out
[1741609732.395779] [ohm:3347170:0]        ib_iface.c:1059 UCX  ERROR ibv_create_cq(cqe=256) failed: Connection timed out
[1741609732.410227] [ohm:3347207:0]        ib_iface.c:1059 UCX  ERROR ibv_create_cq(cqe=256) failed: Connection timed out
[1741609732.413861] [ohm:3347151:0]        ib_iface.c:1059 UCX  ERROR ibv_create_cq(cqe=256) failed: Connection timed out
[1741609732.422052] [ohm:3347196:0]        ib_iface.c:1059 UCX  ERROR ibv_create_cq(cqe=256) failed: Connection timed out
[1741609732.423120] [ohm:3347213:0]        ib_iface.c:1059 UCX  ERROR ibv_create_cq(cqe=256) failed: Connection timed out
[1741609732.436890] [ohm:3347147:0]        ib_iface.c:1059 UCX  ERROR ibv_create_cq(cqe=256) failed: Connection timed out
[1741609732.445833] [ohm:3347155:0]        ib_iface.c:1059 UCX  ERROR ibv_create_cq(cqe=256) failed: Connection timed out
[1741609732.460375] [ohm:3347204:0]        ib_iface.c:1059 UCX  ERROR ibv_create_cq(cqe=256) failed: Connection timed out
[1741609732.461592] [ohm:3347168:0]        ib_iface.c:1059 UCX  ERROR ibv_create_cq(cqe=256) failed: Connection timed out
[1741609732.461603] [ohm:3347183:0]        ib_iface.c:1059 UCX  ERROR ibv_create_cq(cqe=256) failed: Connection timed out
[1741609732.479811] [ohm:3347205:0]        ib_iface.c:1059 UCX  ERROR ibv_create_cq(cqe=256) failed: Connection timed out
[1741609732.482723] [ohm:3347239:0]        ib_iface.c:1059 UCX  ERROR ibv_create_cq(cqe=256) failed: Connection timed out
[1741609732.482723] [ohm:3347272:0]        ib_iface.c:1059 UCX  ERROR ibv_create_cq(cqe=256) failed: Connection timed out
[1741609732.483228] [ohm:3347198:0]        ib_iface.c:1059 UCX  ERROR ibv_create_cq(cqe=256) failed: Connection timed out
[1741609732.486901] [ohm:3347148:0]        ib_iface.c:1059 UCX  ERROR ibv_create_cq(cqe=256) failed: Connection timed out
[1741609732.493239] [ohm:3347235:0]        ib_iface.c:1059 UCX  ERROR ibv_create_cq(cqe=256) failed: Connection timed out
[1741609732.497088] [ohm:3347295:0]        ib_iface.c:1059 UCX  ERROR ibv_create_cq(cqe=256) failed: Connection timed out
[1741609732.514447] [ohm:3347242:0]        ib_iface.c:1059 UCX  ERROR ibv_create_cq(cqe=256) failed: Connection timed out
[1741609732.525914] [ohm:3347199:0]        ib_iface.c:1059 UCX  ERROR ibv_create_cq(cqe=256) failed: Connection timed out
[1741609732.526438] [ohm:3347256:0]        ib_iface.c:1059 UCX  ERROR ibv_create_cq(cqe=256) failed: Connection timed out
[1741609732.527108] [ohm:3347265:0]        ib_iface.c:1059 UCX  ERROR ibv_create_cq(cqe=256) failed: Connection timed out
[1741609732.528303] [ohm:3347202:0]        ib_iface.c:1059 UCX  ERROR ibv_create_cq(cqe=256) failed: Connection timed out
[1741609732.529548] [ohm:3347287:0]        ib_iface.c:1059 UCX  ERROR ibv_create_cq(cqe=256) failed: Connection timed out
[1741609732.530661] [ohm:3347258:0]        ib_iface.c:1059 UCX  ERROR ibv_create_cq(cqe=256) failed: Connection timed out
[1741609732.538226] [ohm:3347191:0]        ib_iface.c:1059 UCX  ERROR ibv_create_cq(cqe=256) failed: Connection timed out
[1741609732.545126] [ohm:3347263:0]        ib_iface.c:1059 UCX  ERROR ibv_create_cq(cqe=256) failed: Connection timed out
[1741609732.545117] [ohm:3347149:0]        ib_iface.c:1059 UCX  ERROR ibv_create_cq(cqe=256) failed: Connection timed out
[1741609732.549300] [ohm:3347208:0]        ib_iface.c:1059 UCX  ERROR ibv_create_cq(cqe=256) failed: Connection timed out
[1741609732.552581] [ohm:3347291:0]        ib_iface.c:1059 UCX  ERROR ibv_create_cq(cqe=256) failed: Connection timed out
[1741609732.552664] [ohm:3347206:0]        ib_iface.c:1059 UCX  ERROR ibv_create_cq(cqe=256) failed: Connection timed out
[1741609732.553232] [ohm:3347275:0]        ib_iface.c:1059 UCX  ERROR ibv_create_cq(cqe=256) failed: Connection timed out
[1741609732.562946] [ohm:3347230:0]        ib_iface.c:1059 UCX  ERROR ibv_create_cq(cqe=256) failed: Connection timed out
[1741609732.566677] [ohm:3347174:0]        ib_iface.c:1059 UCX  ERROR ibv_create_cq(cqe=256) failed: Connection timed out
[1741609732.575085] [ohm:3347251:0]        ib_iface.c:1059 UCX  ERROR ibv_create_cq(cqe=256) failed: Connection timed out
[1741609732.576862] [ohm:3347285:0]        ib_iface.c:1059 UCX  ERROR ibv_create_cq(cqe=256) failed: Connection timed out
[1741609732.578433] [ohm:3347277:0]        ib_iface.c:1059 UCX  ERROR ibv_create_cq(cqe=256) failed: Connection timed out
[1741609732.579739] [ohm:3347209:0]        ib_iface.c:1059 UCX  ERROR ibv_create_cq(cqe=256) failed: Connection timed out
[1741609732.580280] [ohm:3347226:0]        ib_iface.c:1059 UCX  ERROR ibv_create_cq(cqe=256) failed: Connection timed out
[1741609732.582842] [ohm:3347234:0]        ib_iface.c:1059 UCX  ERROR ibv_create_cq(cqe=256) failed: Connection timed out
[1741609732.583228] [ohm:3347211:0]        ib_iface.c:1059 UCX  ERROR ibv_create_cq(cqe=256) failed: Connection timed out
[1741609732.583347] [ohm:3347248:0]        ib_iface.c:1059 UCX  ERROR ibv_create_cq(cqe=256) failed: Connection timed out
[1741609732.583779] [ohm:3347283:0]        ib_iface.c:1059 UCX  ERROR ibv_create_cq(cqe=256) failed: Connection timed out
[1741609732.583840] [ohm:3347216:0]        ib_iface.c:1059 UCX  ERROR ibv_create_cq(cqe=256) failed: Connection timed out

--------------------------------
SUGGESTED CITATIONS FOR THIS RUN
--------------------------------

Below you find a list of papers that are relevant to this ORCA run
We neither can nor want to force you to cite these papers, but we appreciate if you do
You receive ORCA, which is the product of decades of hard work by many enthusiastic individuals, for free
The only thing we kindly ask in return is that you cite our papers,
We deeply appreciate it, if you show your appreciation for ORCA by not just citing the generic ORCA reference.

Please note that relegating all ORCA citations to the supporting information does *not* help us.
SI sections are not indexed - citations you put there will not count into any citation statistics
But we need these citations in order to attract the funding resources that allow us to do what we are doing

Therefore, if you are a happy ORCA user, please consider citing a few of the papers listed below in the main body of your paper

In addition to the list printed below, the program has created the file orca.bibtex that contains the list in bibtex format
You can import this file easily into all common literature databanks and citation aid programs


List of essential papers. We consider these as the minimum necessary citations

  1. Neese,F.
     Software update: the ORCA program system, version 5.0
     WIRES Comput. Molec. Sci., 2022 12(1)e1606
     doi.org/10.1002/wcms.1606

List of papers to cite with high priority. The work reported in these papers was absolutely
necessary for this run to complete.
Our perspective: the developers of density functionals and basis sets usually get cited in chemistry papers
Good! But without the algorithms to do something with them, the functionals or basis sets would not do anything.
Hence, in our opinion, the algorithm design and method developments papers are equally worthy of getting cited

  1. Neese,F.; Olbrich,G.
     Efficient use of the resolution of the identity approximation in time-dependent density functional calculations with hybrid density functionals
     Chem. Phys. Lett., 2002 362 170-178
     doi.org/10.1016/s0009-2614(02)01053-9
  2. Neese,F.
     An improvement of the resolution of the identity approximation for the formation of the Coulomb matrix
     J. Comp. Chem., 2003 24(14)1740-1747
     doi.org/10.1002/jcc.10318
  3. Neese,F.; Wennmohs,F.; Hansen,A.; Becker,U.
     Efficient, approximate and parallel Hartree-Fock and hybrid DFT calculations. A 'chain-of-spheres' algorithm for the Hartree-Fock exchange
     Chem. Phys., 2009 356(1-3)98-109
     doi.org/10.1016/j.chemphys.2008.10.036
  4. Petrenko,T.; Kossmann,S.; Neese,F.
     Efficient time-dependent density functional theory approximations for hybrid density functionals: Analytical gradients and parallelization
     J. Chem. Phys., 2011 134 054116
     doi.org/10.1063/1.3533441
  5. Helmich-Paris,B.; de Souza,B.; Neese,F.; Izsák,R.
     An improved chain of spheres for exchange algorithm
     J. Chem. Phys., 2021 155 104109
     doi.org/doi: 10.1063/5.0058766.
  6. Neese,F.
     The SHARK Integral Generation and Digestion System
     J. Comp. Chem., 2022  1-16
     doi.org/10.1002/jcc.26942
  7. Lehtola,S.; Steigemann,C.; Oliveira,M.; Marques,M.
     Recent developments in Libxc - A comprehensive library of functionals for density functional theory
     Software X, 2018 7 
     doi.org/10.1016/j.softx.2017.11.002
  8. Grimme,S.; Antony,J.; Ehrlich,S.; Krieg,H.
     A consistent and accurate ab initio parametrization of density functional dispersion correction (DFT-D) for the 94 elements H-Pu
     J. Chem. Phys., 2010 132 154104-XXXX
     doi.org/10.1063/1.3382344
  9. Grimme,S.; Ehrlich,S.; Goerigk,L.
     Effect of the damping function in dispersion corrected density functional theory
     J. Comput. Chem., 2011 32(7)1456-1465
     doi.org/10.1002/jcc.21759

List of suggested additional citations. These are papers that are important in the 'surrounding' of 
of this run, or papers that preceded the highly important papers. If you like your results we are grateful for a citation.

  1. Izsak,R.; Neese,F.
     An overlap fitted chain of spheres exchange method
     J. Chem. Phys., 2011 135 144105
     doi.org/10.1063/1.3646921
  2. Izsak,R.; Hansen,A.; Neese,F.
     The resolution of identity and chain of spheres approximations for the LPNO-CCSD singles Fock term
     Molec. Phys., 2012 110 2413-2417
     doi.org/10.1080/00268976.2012.687466
  3. Neese,F.
     The ORCA program system
     WIRES Comput. Molec. Sci., 2012 2(1)73-78
     doi.org/10.1002/wcms.81
  4. Izsak,R.; Neese,F.; Klopper,W.
     Robust fitting techniques in the chain of spheres approximation to the Fock exchange: The role of the complementary space
     J. Chem. Phys., 2013 139 
     doi.org/10.1063/1.4819264
  5. Neese,F.
     Software update: the ORCA program system, version 4.0
     WIRES Comput. Molec. Sci., 2018 8(1)1-6
     doi.org/10.1002/wcms.1327
  6. Neese,F.; Wennmohs,F.; Becker,U.; Riplinger,C.
     The ORCA quantum chemistry program package
     J. Chem. Phys., 2020 152 Art. No. L224108
     doi.org/10.1063/5.0004608

List of optional additional citations

  1. Neese,F.
     Approximate second-order SCF convergence for spin unrestricted wavefunctions
     Chem. Phys. Lett., 2000 325(1-3)93-98
     doi.org/10.1016/s0009-2614(00)00662-x

Timings for individual modules:

Sum of individual times          ...       24.486 sec (=   0.408 min)
Startup calculation              ...        2.408 sec (=   0.040 min)   9.8 %
SCF iterations                   ...        9.906 sec (=   0.165 min)  40.5 %
Property integrals               ...        2.151 sec (=   0.036 min)   8.8 %
Property calculations            ...        2.000 sec (=   0.033 min)   8.2 %
CIS module                       ...        8.021 sec (=   0.134 min)  32.8 %
                             ****ORCA TERMINATED NORMALLY****
TOTAL RUN TIME: 0 days 0 hours 0 minutes 26 seconds 586 msec
