
                                 *****************
                                 * O   R   C   A *
                                 *****************

                                            #,                                       
                                            ###                                      
                                            ####                                     
                                            #####                                    
                                            ######                                   
                                           ########,                                 
                                     ,,################,,,,,                         
                               ,,#################################,,                 
                          ,,##########################################,,             
                       ,#########################################, ''#####,          
                    ,#############################################,,   '####,        
                  ,##################################################,,,,####,       
                ,###########''''           ''''###############################       
              ,#####''   ,,,,##########,,,,          '''####'''          '####       
            ,##' ,,,,###########################,,,                        '##       
           ' ,,###''''                  '''############,,,                           
         ,,##''                                '''############,,,,        ,,,,,,###''
      ,#''                                            '''#######################'''  
     '                                                          ''''####''''         
             ,#######,   #######,   ,#######,      ##                                
            ,#'     '#,  ##    ##  ,#'     '#,    #''#        ,####,   ,####,        
            ##       ##  ##   ,#'  ##            #'  '#       #'       #'  '#        
            ##       ##  #######   ##           ,######,      #####,   #    #        
            '#,     ,#'  ##    ##  '#,     ,#' ,#      #,     #,   #   #,  ,#        
             '#######'   ##     ##  '#######'  #'      '#     '####' # '####'        



                #########################################################
                #                        -***-                          #
                #          Department of theory and spectroscopy        #
                #                                                       #
                #                      Frank Neese                      #
                #                                                       #
                #     Directorship, Architecture, Infrastructure        #
                #                    SHARK, DRIVERS                     #
                #        Core code/Algorithms in most modules           #
                #                                                       #
                #        Max Planck Institute fuer Kohlenforschung      #
                #                Kaiser Wilhelm Platz 1                 #
                #                 D-45470 Muelheim/Ruhr                 #
                #                      Germany                          #
                #                                                       #
                #                  All rights reserved                  #
                #                        -***-                          #
                #########################################################


                         Program Version 6.0.0  -   RELEASE  -


 With contributions from (in alphabetic order):
   Daniel Aravena         : Magnetic Suceptibility
   Michael Atanasov       : Ab Initio Ligand Field Theory (pilot matlab implementation)
   Alexander A. Auer      : GIAO ZORA, VPT2 properties, NMR spectrum
   Ute Becker             : All parallelization in ORCA, NUMFREQ, NUMCALC
   Giovanni Bistoni       : ED, misc. LED, open-shell LED, HFLD
   Martin Brehm           : Molecular dynamics
   Dmytro Bykov           : pre 5.0 version of the SCF Hessian
   Marcos Casanova-Páez   : Triplet and SCS-CIS(D). UHF-(DLPNO)-IP/EA/STEOM-CCSD. UHF-CVS-IP/STEOM-CCSD
   Vijay G. Chilkuri      : MRCI spin determinant printing, contributions to CSF-ICE
   Pauline Colinet        : FMM embedding
   Dipayan Datta          : RHF DLPNO-CCSD density
   Achintya Kumar Dutta   : EOM-CC, STEOM-CC
   Nicolas Foglia         : Exact transition moments, OPA infrastructure, MCD improvements
   Dmitry Ganyushin       : Spin-Orbit,Spin-Spin,Magnetic field MRCI
   Miquel Garcia          : C-PCM and meta-GGA Hessian, CCSD/C-PCM, Gaussian charge scheme
   Tiago L. C. Gouveia    : GS-ROHF, GS-ROCIS
   Yang Guo               : DLPNO-NEVPT2, F12-NEVPT2, CIM, IAO-localization
   Andreas Hansen         : Spin unrestricted coupled pair/coupled cluster methods
   Ingolf Harden          : AUTO-CI MPn and infrastructure 
   Benjamin Helmich-Paris : MC-RPA, TRAH-(SCF,CASSCF), AVAS, COSX integrals, SCF dyn. polar.
   Lee Huntington         : MR-EOM, pCC
   Robert Izsak           : Overlap fitted RIJCOSX, COSX-SCS-MP3, EOM
   Riya Kayal             : Wick's Theorem for AUTO-CI, AUTO-CI UHF-CCSDT
   Emily Kempfer          : AUTO-CI, RHF CISDT and CCSDT
   Christian Kollmar      : KDIIS, OOCD, Brueckner-CCSD(T), CCSD density, CASPT2, CASPT2-K, improved NEVPT2
   Axel Koslowski         : Symmetry handling
   Simone Kossmann        : Meta GGA functionals, TD-DFT gradient, OOMP2, (MP2 Hessian; deprecated post 5.0)
   Lucas Lang             : DCDCAS
   Marvin Lechner         : AUTO-CI (C++ implementation), FIC-MRCC
   Spencer Leger          : CASSCF response
   Dagmar Lenk            : GEPOL surface, SMD, ORCA-2-JSON
   Dimitrios Liakos       : Extrapolation schemes; Compound Job, initial MDCI parallelization
   Dimitrios Manganas     : Further ROCIS development; embedding schemes. LFT, Crystal Embedding
   Dimitrios Pantazis     : SARC Basis sets
   Anastasios Papadopoulos: AUTO-CI, single reference methods and gradients
   Taras Petrenko         : pre 6.0 DFT Hessian and TD-DFT gradient, (ASA, deprecated), ECA, 1-Electron XAS/XES, NRVS
   Peter Pinski           : DLPNO-MP2, DLPNO-MP2 Gradient
   Christoph Reimann      : Effective Core Potentials
   Marius Retegan         : Local ZFS, SOC
   Christoph Riplinger    : Optimizer, TS searches, QM/MM, DLPNO-CCSD(T), (RO)-DLPNO pert. Triples
   Michael Roemelt        : Original ROCIS implementation
   Masaaki Saitow         : Open-shell DLPNO-CCSD energy and density
   Barbara Sandhoefer     : DKH picture change effects
   Kantharuban Sivalingam : CASSCF convergence/infrastructure, NEVPT2 and variants, FIC-MRCI
   Bernardo de Souza      : ESD, SOC TD-DFT
   Georgi Stoychev        : AutoAux, RI-MP2 NMR, DLPNO-MP2 response, X2C
   Van Anh Tran           : RI-MP2 g-tensors
   Willem Van den Heuvel  : Paramagnetic NMR
   Zikuan Wang            : NOTCH, Electric field optimization 
   Frank Wennmohs         : Technical directorship and infrastructure
   Hang Xu                : AUTO-CI-Response properties 


 We gratefully acknowledge several colleagues who have allowed us to
 interface, adapt or use parts of their codes:
   Stefan Grimme, W. Hujo, H. Kruse, P. Pracht,  : VdW corrections, initial TS optimization,
                  C. Bannwarth, S. Ehlert,         DFT functionals, gCP, sTDA/sTD-DF
                  L. Wittmann, M. Mueller
   Ed Valeev, F. Pavosevic, A. Kumar             : LibInt (2-el integral package), F12 methods
   Garnet Chan, S. Sharma, J. Yang, R. Olivares  : DMRG
   Ulf Ekstrom                                   : XCFun DFT Library
   Mihaly Kallay                                 : mrcc  (arbitrary order and MRCC methods)
   Frank Weinhold                                : gennbo (NPA and NBO analysis)
   Simon Mueller                                 : openCOSMO-RS
   Christopher J. Cramer and Donald G. Truhlar   : smd solvation model
   Lars Goerigk                                  : TD-DFT with DH, B97 family of functionals
   V. Asgeirsson, H. Jonsson                     : NEB implementation
   FAccTs GmbH                                   : IRC, NEB, NEB-TS, DLPNO-Multilevel, CI-OPT
                                                   MM, QMMM, 2- and 3-layer-ONIOM, Crystal-QMMM,
                                                   LR-CPCM, SF, NACMEs, symmetry and pop. for TD-DFT,
                                                   nearIR, NL-DFT gradient (VV10), updates on ESD,
                                                   ML-optimized integration grids, MBIS, APM,
                                                   GOAT, DOCKER, SOLVATOR, interface openCOSMO-RS
   S Lehtola, MJT Oliveira, MAL Marques          : LibXC Library
   Liviu Ungur et al                             : ANISO software


 Your calculation uses the libint2 library for the computation of 2-el integrals
 For citations please refer to: http://libint.valeyev.net

 Your ORCA version has been built with support for libXC version: 6.2.2
 For citations please refer to: https://libxc.gitlab.io

 This ORCA versions uses:
   CBLAS   interface :  Fast vector & matrix operations
   LAPACKE interface :  Fast linear algebra routines
   SCALAPACK package :  Parallel linear algebra routines
   Shared memory     :  Shared parallel matrices
   BLAS/LAPACK       :  OpenBLAS 0.3.27  USE64BITINT DYNAMIC_ARCH NO_AFFINITY Zen SINGLE_THREADED
        Core in use  :  Zen
   Copyright (c) 2011-2014, The OpenBLAS Project


Your calculation utilizes the atom-pairwise dispersion correction
with the Becke-Johnson damping scheme (D3BJ)


Warning: RI is on but no J-basis has been assigned. Assigning Def2/J (nothing to worry about!)
================================================================================

----- Orbital basis set information -----
Your calculation utilizes the basis: def2-TZVPPD
   F. Weigend and R. Ahlrichs, Phys. Chem. Chem. Phys. 7, 3297 (2005).
   D. Rappoport and F. Furche, J. Chem. Phys. 133, 134105 (2010)
   D. Rappoport, J. Chem. Phys. 155, 124102 (2021).

----- AuxJ basis set information -----
Your calculation utilizes the auxiliary basis: def2/J
   F. Weigend, Phys. Chem. Chem. Phys. 8, 1057 (2006).

================================================================================
                                        WARNINGS
                       Please study these warnings very carefully!
================================================================================

Using LibXC functional ID 531 : wB97M-V exchange-correlation functional
[ 1]  N. Mardirossian and M. Head-Gordon.,  J. Chem. Phys. 144, 214110 (2016)
Using LibXC functional ID 531 : wB97M-V exchange-correlation functional
[ 1]  N. Mardirossian and M. Head-Gordon.,  J. Chem. Phys. 144, 214110 (2016)

WARNING: B97M-V or wB97M-V functional requested.
  ===> : libXC variant has now been activated.
         Any manually given DFX/HFX/RangeSep scaling parameters are IGNORED!

Your calculation utilizes LibXC
 by S Lehtola, C Steigemann, MJT Oliveira & MAL Marques
Please cite in your paper:
 S Lehtola, C Steigemann, MJT Oliveira & MAL Marques, SoftwareX, 7, (2018), 1.
   


WARNING: your system is open-shell and RHF/RKS was chosen
  ===> : WILL SWITCH to UHF/UKS

INFO   : Checking CIS options ...

WARNING: CIS/ROCIS methods need fully converged wavefunctions
  ===> : Setting SCFConvForced true
         You can overwrite this default with %scf ConvForced false 


================================================================================
                                       INPUT FILE
================================================================================
NAME = orca.inp
|  1> ! Engrad def2-TZVPPD wB97M-D3BJ 
|  2> %pal nprocs 8 end%pal nprocs 64 end 
|  3> %tddft 
|  4> Iroot 3 Nroots 3 
|  5> sf true 
|  6> end 
|  7> *xyz 0 3 
|  8> O   2.7844183721668334 0.9638129365534216 -0.6109764077484587
|  9> O   -0.522944208590778 1.0113644258628158 -2.329284931939488
| 10> O   0.5082459109064633 -2.8844653924785413 -1.1456372325798978
| 11> O   -2.8659631175193834 -1.527552414438179 0.5007813431355905
| 12> N   0.45483176856160545 -1.872059418559867 0.8290571535812439
| 13> N   -2.037131833183627 0.33226549919086795 1.2927816366188694
| 14> N   1.638973746172656 -0.9511873965412446 -0.8566794729982135
| 15> N   -1.6120692122732279 -0.2917091446122228 -0.8696741535126008
| 16> C   1.4677816268010042 0.262110339951594 1.124567340006556
| 17> C   -0.6875035903647297 1.705211671987206 -0.09618697329070262
| 18> C   0.6354580391177895 -0.7412961649453842 1.5885298979794065
| 19> C   -1.0846507479619736 1.2814032732581595 1.161454905950206
| 20> C   1.9607566731109716 1.2560535327529352 2.0214483344394747
| 21> C   -0.3790020204372452 3.0715444138095522 -0.3318699320978082
| 22> C   2.0373115772882135 0.14342647937272227 -0.1686676320035654
| 23> C   -0.9082344970823515 0.8268939698692271 -1.2098181847053882
| 24> C   0.8410192592511927 -1.968024745340755 -0.45347555450858384
| 25> C   -2.204370936184961 -0.5536404359832338 0.3172043040311805
| 26> H   0.5839818959676869 -0.9368505786471704 2.6462147547816226
| 27> H   -1.1312241910591276 2.012748582021276 1.946042652844139
| 28> H   1.9844994577160906 2.2257502825878808 1.5309347056131937
| 29> H   1.395623607680787 1.398882112077623 2.943013245608756
| 30> H   2.976476925024936 1.1363383434043717 2.392723971331212
| 31> H   -1.253148822999082 3.5028963909868622 -0.8229785588996619
| 32> H   -0.10352124990119056 3.7237897510653055 0.4872838494649547
| 33> H   0.4321882700404706 3.1836033078961194 -1.048257348926815
| 34> H   -0.1977777837275641 -2.575779147889873 1.1120286164898325
| 35> H   -2.444646447876433 0.14138257174735888 2.182726828503639
| 36> H   1.9398004223275207 -1.009973880208224 -1.8143278373534244
| 37> H   -1.756578892972556 -0.9519391647506683 -1.6143593198152633
| 38> *
| 39> 
| 40>                          ****END OF INPUT****
================================================================================

                     *******************************
                     * Energy+Gradient Calculation *
                     *******************************

---------------------------------
CARTESIAN COORDINATES (ANGSTROEM)
---------------------------------
  O      2.784418    0.963813   -0.610976
  O     -0.522944    1.011364   -2.329285
  O      0.508246   -2.884465   -1.145637
  O     -2.865963   -1.527552    0.500781
  N      0.454832   -1.872059    0.829057
  N     -2.037132    0.332265    1.292782
  N      1.638974   -0.951187   -0.856679
  N     -1.612069   -0.291709   -0.869674
  C      1.467782    0.262110    1.124567
  C     -0.687504    1.705212   -0.096187
  C      0.635458   -0.741296    1.588530
  C     -1.084651    1.281403    1.161455
  C      1.960757    1.256054    2.021448
  C     -0.379002    3.071544   -0.331870
  C      2.037312    0.143426   -0.168668
  C     -0.908234    0.826894   -1.209818
  C      0.841019   -1.968025   -0.453476
  C     -2.204371   -0.553640    0.317204
  H      0.583982   -0.936851    2.646215
  H     -1.131224    2.012749    1.946043
  H      1.984499    2.225750    1.530935
  H      1.395624    1.398882    2.943013
  H      2.976477    1.136338    2.392724
  H     -1.253149    3.502896   -0.822979
  H     -0.103521    3.723790    0.487284
  H      0.432188    3.183603   -1.048257
  H     -0.197778   -2.575779    1.112029
  H     -2.444646    0.141383    2.182727
  H      1.939800   -1.009974   -1.814328
  H     -1.756579   -0.951939   -1.614359

----------------------------
CARTESIAN COORDINATES (A.U.)
----------------------------
  NO LB      ZA    FRAG     MASS         X           Y           Z
   0 O     8.0000    0    15.999    5.261788    1.821342   -1.154578
   1 O     8.0000    0    15.999   -0.988221    1.911202   -4.401711
   2 O     8.0000    0    15.999    0.960446   -5.450850   -2.164941
   3 O     8.0000    0    15.999   -5.415885   -2.886656    0.946340
   4 N     7.0000    0    14.007    0.859507   -3.537680    1.566691
   5 N     7.0000    0    14.007   -3.849621    0.627891    2.443003
   6 N     7.0000    0    14.007    3.097212   -1.797484   -1.618890
   7 N     7.0000    0    14.007   -3.046369   -0.551250   -1.643446
   8 C     6.0000    0    12.011    2.773705    0.495317    2.125124
   9 C     6.0000    0    12.011   -1.299194    3.222383   -0.181767
  10 C     6.0000    0    12.011    1.200842   -1.400847    3.001886
  11 C     6.0000    0    12.011   -2.049693    2.421501    2.194832
  12 C     6.0000    0    12.011    3.705293    2.373597    3.819984
  13 C     6.0000    0    12.011   -0.716210    5.804378   -0.627143
  14 C     6.0000    0    12.011    3.849961    0.271037   -0.318736
  15 C     6.0000    0    12.011   -1.716314    1.562603   -2.286225
  16 C     6.0000    0    12.011    1.589296   -3.719028   -0.856945
  17 C     6.0000    0    12.011   -4.165657   -1.046229    0.599429
  18 H     1.0000    0     1.008    1.103566   -1.770391    5.000621
  19 H     1.0000    0     1.008   -2.137704    3.803544    3.677488
  20 H     1.0000    0     1.008    3.750160    4.206058    2.893047
  21 H     1.0000    0     1.008    2.637346    2.643504    5.561489
  22 H     1.0000    0     1.008    5.624726    2.147368    4.521593
  23 H     1.0000    0     1.008   -2.368108    6.619515   -1.555204
  24 H     1.0000    0     1.008   -0.195627    7.036943    0.920833
  25 H     1.0000    0     1.008    0.816717    6.016138   -1.980919
  26 H     1.0000    0     1.008   -0.373746   -4.867517    2.101430
  27 H     1.0000    0     1.008   -4.619712    0.267174    4.124756
  28 H     1.0000    0     1.008    3.665692   -1.908574   -3.428583
  29 H     1.0000    0     1.008   -3.319453   -1.798904   -3.050697

--------------------------------
INTERNAL COORDINATES (ANGSTROEM)
--------------------------------
 O      0   0   0     0.000000000000     0.00000000     0.00000000
 O      1   0   0     3.727397559832     0.00000000     0.00000000
 O      2   1   0     4.200222007493    68.92521682     0.00000000
 O      3   2   1     3.992141470933    66.01173643   119.36054939
 N      3   2   1     2.219738012777    79.73212904    60.86484210
 N      4   3   2     2.184753632478    96.78825007   307.01953439
 N      1   2   3     2.244914177256    60.50718473   359.30543476
 N      4   3   2     2.231077493383    57.31137643   358.02168478
 C      1   2   3     2.288674497105    80.96928014   296.64534149
 C      8   4   3     2.332551554618   119.55738933   240.62200199
 C      5   3   2     1.374063402767   149.75444724   328.20777424
 C      6   4   3     1.351047535083   146.12459589    26.50430435
 C      9   1   2     1.426654472875    93.68851933   232.67158618
 C     10   8   4     1.420417134892   148.71334221   222.08530062
 C      1   2   3     1.194503895004    67.94413184   326.70292588
 C      2   1   3     1.198200214365    81.52691880    72.71924532
 C      3   2   1     1.195696177833    61.35077417    34.30477675
 C      4   3   2     1.191599465201    75.22594678   330.49601684
 H     11   5   3     1.076841946778   112.77782501   189.79953135
 H     12   6   4     1.073598145876   112.14448322   183.32687818
 H     13   9   1     1.086958659069   110.20538710    46.00374896
 H     13   9   1     1.090439026362   116.32564605   166.67115145
 H     13   9   1     1.088055584636   117.41522044   288.02863412
 H     14  10   8     1.091505769093   106.31142666    42.35313160
 H     14  10   8     1.082740297927   120.61009422   165.28993282
 H     14  10   8     1.088024730463   111.73107772   288.24719294
 H      5   3   2     1.000596589045    86.93366405   124.91347386
 H      6   4   3     0.997249666702    90.31737442   229.28521470
 H      7   1   2     1.005506305053    90.08358467    78.59467759
 H      8   4   3     1.005655370502    90.59800178    61.50891533

---------------------------
INTERNAL COORDINATES (A.U.)
---------------------------
 O      0   0   0     0.000000000000     0.00000000     0.00000000
 O      1   0   0     7.043760580328     0.00000000     0.00000000
 O      2   1   0     7.937269295830    68.92521682     0.00000000
 O      3   2   1     7.544054067934    66.01173643   119.36054939
 N      3   2   1     4.194696933202    79.73212904    60.86484210
 N      4   3   2     4.128586035473    96.78825007   307.01953439
 N      1   2   3     4.242272989171    60.50718473   359.30543476
 N      4   3   2     4.216125446050    57.31137643   358.02168478
 C      1   2   3     4.324968009218    80.96928014   296.64534149
 C      8   4   3     4.407883631480   119.55738933   240.62200199
 C      5   3   2     2.596603521873   149.75444724   328.20777424
 C      6   4   3     2.553109835217   146.12459589    26.50430435
 C      9   1   2     2.695986241468    93.68851933   232.67158618
 C     10   8   4     2.684199380875   148.71334221   222.08530062
 C      1   2   3     2.257285227460    67.94413184   326.70292588
 C      2   1   3     2.264270258755    81.52691880    72.71924532
 C      3   2   1     2.259538315482    61.35077417    34.30477675
 C      4   3   2     2.251796650557    75.22594678   330.49601684
 H     11   5   3     2.034936368929   112.77782501   189.79953135
 H     12   6   4     2.028806473591   112.14448322   183.32687818
 H     13   9   1     2.054054184535   110.20538710    46.00374896
 H     13   9   1     2.060631125564   116.32564605   166.67115145
 H     13   9   1     2.056127073446   117.41522044   288.02863412
 H     14  10   8     2.062646977181   106.31142666    42.35313160
 H     14  10   8     2.046082637243   120.61009422   165.28993282
 H     14  10   8     2.056068767509   111.73107772   288.24719294
 H      5   3   2     1.890853523830    86.93366405   124.91347386
 H      6   4   3     1.884528757210    90.31737442   229.28521470
 H      7   1   2     1.900131542480    90.08358467    78.59467759
 H      8   4   3     1.900413235355    90.59800178    61.50891533

---------------------
BASIS SET INFORMATION
---------------------
There are 4 groups of distinct atoms

 Group   1 Type O   : 12s7p3d1f contracted to 6s4p3d1f pattern {621111/4111/111/1}
 Group   2 Type N   : 12s6p3d1f contracted to 6s3p3d1f pattern {621111/411/111/1}
 Group   3 Type C   : 12s6p3d1f contracted to 6s3p3d1f pattern {621111/411/111/1}
 Group   4 Type H   : 5s3p1d contracted to 3s3p1d pattern {311/111/1}

Atom   0O    basis set group =>   1
Atom   1O    basis set group =>   1
Atom   2O    basis set group =>   1
Atom   3O    basis set group =>   1
Atom   4N    basis set group =>   2
Atom   5N    basis set group =>   2
Atom   6N    basis set group =>   2
Atom   7N    basis set group =>   2
Atom   8C    basis set group =>   3
Atom   9C    basis set group =>   3
Atom  10C    basis set group =>   3
Atom  11C    basis set group =>   3
Atom  12C    basis set group =>   3
Atom  13C    basis set group =>   3
Atom  14C    basis set group =>   3
Atom  15C    basis set group =>   3
Atom  16C    basis set group =>   3
Atom  17C    basis set group =>   3
Atom  18H    basis set group =>   4
Atom  19H    basis set group =>   4
Atom  20H    basis set group =>   4
Atom  21H    basis set group =>   4
Atom  22H    basis set group =>   4
Atom  23H    basis set group =>   4
Atom  24H    basis set group =>   4
Atom  25H    basis set group =>   4
Atom  26H    basis set group =>   4
Atom  27H    basis set group =>   4
Atom  28H    basis set group =>   4
Atom  29H    basis set group =>   4
---------------------------------
AUXILIARY/J BASIS SET INFORMATION
---------------------------------
There are 4 groups of distinct atoms

 Group   1 Type O   : 12s5p4d2f1g contracted to 6s4p3d1f1g pattern {711111/2111/211/2/1}
 Group   2 Type N   : 12s5p4d2f1g contracted to 6s4p3d1f1g pattern {711111/2111/211/2/1}
 Group   3 Type C   : 12s5p4d2f1g contracted to 6s4p3d1f1g pattern {711111/2111/211/2/1}
 Group   4 Type H   : 5s2p1d contracted to 3s1p1d pattern {311/2/1}

Atom   0O    basis set group =>   1
Atom   1O    basis set group =>   1
Atom   2O    basis set group =>   1
Atom   3O    basis set group =>   1
Atom   4N    basis set group =>   2
Atom   5N    basis set group =>   2
Atom   6N    basis set group =>   2
Atom   7N    basis set group =>   2
Atom   8C    basis set group =>   3
Atom   9C    basis set group =>   3
Atom  10C    basis set group =>   3
Atom  11C    basis set group =>   3
Atom  12C    basis set group =>   3
Atom  13C    basis set group =>   3
Atom  14C    basis set group =>   3
Atom  15C    basis set group =>   3
Atom  16C    basis set group =>   3
Atom  17C    basis set group =>   3
Atom  18H    basis set group =>   4
Atom  19H    basis set group =>   4
Atom  20H    basis set group =>   4
Atom  21H    basis set group =>   4
Atom  22H    basis set group =>   4
Atom  23H    basis set group =>   4
Atom  24H    basis set group =>   4
Atom  25H    basis set group =>   4
Atom  26H    basis set group =>   4
Atom  27H    basis set group =>   4
Atom  28H    basis set group =>   4
Atom  29H    basis set group =>   4
[1741686158.582017] [ohm:4089260:0]        ib_iface.c:1059 UCX  ERROR ibv_create_cq(cqe=256) failed: Connection timed out
[1741686158.583385] [ohm:4089286:0]        ib_iface.c:1059 UCX  ERROR ibv_create_cq(cqe=256) failed: Connection timed out
[1741686158.589866] [ohm:4089284:0]        ib_iface.c:1059 UCX  ERROR ibv_create_cq(cqe=256) failed: Connection timed out
[1741686158.592754] [ohm:4089285:0]        ib_iface.c:1059 UCX  ERROR ibv_create_cq(cqe=256) failed: Connection timed out
[1741686158.595714] [ohm:4089263:0]        ib_iface.c:1059 UCX  ERROR ibv_create_cq(cqe=256) failed: Connection timed out
[1741686158.597319] [ohm:4089258:0]        ib_iface.c:1059 UCX  ERROR ibv_create_cq(cqe=256) failed: Connection timed out
[1741686158.602028] [ohm:4089274:0]        ib_iface.c:1059 UCX  ERROR ibv_create_cq(cqe=256) failed: Connection timed out
[1741686158.610521] [ohm:4089269:0]        ib_iface.c:1059 UCX  ERROR ibv_create_cq(cqe=256) failed: Connection timed out
[1741686158.623929] [ohm:4089264:0]        ib_iface.c:1059 UCX  ERROR ibv_create_cq(cqe=256) failed: Connection timed out
[1741686158.628262] [ohm:4089281:0]        ib_iface.c:1059 UCX  ERROR ibv_create_cq(cqe=256) failed: Connection timed out
[1741686158.636710] [ohm:4089282:0]        ib_iface.c:1059 UCX  ERROR ibv_create_cq(cqe=256) failed: Connection timed out
[1741686158.654507] [ohm:4089259:0]        ib_iface.c:1059 UCX  ERROR ibv_create_cq(cqe=256) failed: Connection timed out
[1741686158.663659] [ohm:4089283:0]        ib_iface.c:1059 UCX  ERROR ibv_create_cq(cqe=256) failed: Connection timed out
[1741686158.674000] [ohm:4089265:0]        ib_iface.c:1059 UCX  ERROR ibv_create_cq(cqe=256) failed: Connection timed out
[1741686158.681165] [ohm:4089270:0]        ib_iface.c:1059 UCX  ERROR ibv_create_cq(cqe=256) failed: Connection timed out
[1741686158.683998] [ohm:4089294:0]        ib_iface.c:1059 UCX  ERROR ibv_create_cq(cqe=256) failed: Connection timed out
[1741686158.691562] [ohm:4089302:0]        ib_iface.c:1059 UCX  ERROR ibv_create_cq(cqe=256) failed: Connection timed out
[1741686158.698275] [ohm:4089280:0]        ib_iface.c:1059 UCX  ERROR ibv_create_cq(cqe=256) failed: Connection timed out
[1741686158.724391] [ohm:4089262:0]        ib_iface.c:1059 UCX  ERROR ibv_create_cq(cqe=256) failed: Connection timed out
[1741686158.725761] [ohm:4089303:0]        ib_iface.c:1059 UCX  ERROR ibv_create_cq(cqe=256) failed: Connection timed out
[1741686158.755085] [ohm:4089397:0]        ib_iface.c:1059 UCX  ERROR ibv_create_cq(cqe=256) failed: Connection timed out
[1741686158.757860] [ohm:4089276:0]        ib_iface.c:1059 UCX  ERROR ibv_create_cq(cqe=256) failed: Connection timed out
[1741686158.761512] [ohm:4089319:0]        ib_iface.c:1059 UCX  ERROR ibv_create_cq(cqe=256) failed: Connection timed out
[1741686158.761833] [ohm:4089390:0]        ib_iface.c:1059 UCX  ERROR ibv_create_cq(cqe=256) failed: Connection timed out
[1741686158.776130] [ohm:4089272:0]        ib_iface.c:1059 UCX  ERROR ibv_create_cq(cqe=256) failed: Connection timed out
[1741686158.792769] [ohm:4089278:0]        ib_iface.c:1059 UCX  ERROR ibv_create_cq(cqe=256) failed: Connection timed out
[1741686158.795371] [ohm:4089279:0]        ib_iface.c:1059 UCX  ERROR ibv_create_cq(cqe=256) failed: Connection timed out
[1741686158.797740] [ohm:4089268:0]        ib_iface.c:1059 UCX  ERROR ibv_create_cq(cqe=256) failed: Connection timed out
[1741686158.810256] [ohm:4089266:0]        ib_iface.c:1059 UCX  ERROR ibv_create_cq(cqe=256) failed: Connection timed out
[1741686158.814030] [ohm:4089287:0]        ib_iface.c:1059 UCX  ERROR ibv_create_cq(cqe=256) failed: Connection timed out
[1741686158.832132] [ohm:4089348:0]        ib_iface.c:1059 UCX  ERROR ibv_create_cq(cqe=256) failed: Connection timed out
[1741686158.833156] [ohm:4089277:0]        ib_iface.c:1059 UCX  ERROR ibv_create_cq(cqe=256) failed: Connection timed out
[1741686158.838470] [ohm:4089335:0]        ib_iface.c:1059 UCX  ERROR ibv_create_cq(cqe=256) failed: Connection timed out
[1741686158.848089] [ohm:4089368:0]        ib_iface.c:1059 UCX  ERROR ibv_create_cq(cqe=256) failed: Connection timed out
[1741686158.849206] [ohm:4089393:0]        ib_iface.c:1059 UCX  ERROR ibv_create_cq(cqe=256) failed: Connection timed out
[1741686158.853219] [ohm:4089307:0]        ib_iface.c:1059 UCX  ERROR ibv_create_cq(cqe=256) failed: Connection timed out
[1741686158.853751] [ohm:4089346:0]        ib_iface.c:1059 UCX  ERROR ibv_create_cq(cqe=256) failed: Connection timed out
[1741686158.859433] [ohm:4089290:0]        ib_iface.c:1059 UCX  ERROR ibv_create_cq(cqe=256) failed: Connection timed out
[1741686158.861128] [ohm:4089378:0]        ib_iface.c:1059 UCX  ERROR ibv_create_cq(cqe=256) failed: Connection timed out
[1741686158.863092] [ohm:4089309:0]        ib_iface.c:1059 UCX  ERROR ibv_create_cq(cqe=256) failed: Connection timed out
[1741686158.865454] [ohm:4089394:0]        ib_iface.c:1059 UCX  ERROR ibv_create_cq(cqe=256) failed: Connection timed out
[1741686158.865602] [ohm:4089275:0]        ib_iface.c:1059 UCX  ERROR ibv_create_cq(cqe=256) failed: Connection timed out
[1741686158.874635] [ohm:4089338:0]        ib_iface.c:1059 UCX  ERROR ibv_create_cq(cqe=256) failed: Connection timed out
[1741686158.880858] [ohm:4089261:0]        ib_iface.c:1059 UCX  ERROR ibv_create_cq(cqe=256) failed: Connection timed out
[1741686158.883407] [ohm:4089359:0]        ib_iface.c:1059 UCX  ERROR ibv_create_cq(cqe=256) failed: Connection timed out
[1741686158.888431] [ohm:4089316:0]        ib_iface.c:1059 UCX  ERROR ibv_create_cq(cqe=256) failed: Connection timed out
[1741686158.890170] [ohm:4089386:0]        ib_iface.c:1059 UCX  ERROR ibv_create_cq(cqe=256) failed: Connection timed out
[1741686158.892991] [ohm:4089354:0]        ib_iface.c:1059 UCX  ERROR ibv_create_cq(cqe=256) failed: Connection timed out
[1741686158.895818] [ohm:4089340:0]        ib_iface.c:1059 UCX  ERROR ibv_create_cq(cqe=256) failed: Connection timed out
[1741686158.897368] [ohm:4089363:0]        ib_iface.c:1059 UCX  ERROR ibv_create_cq(cqe=256) failed: Connection timed out
[1741686158.900319] [ohm:4089369:0]        ib_iface.c:1059 UCX  ERROR ibv_create_cq(cqe=256) failed: Connection timed out
[1741686158.900586] [ohm:4089293:0]        ib_iface.c:1059 UCX  ERROR ibv_create_cq(cqe=256) failed: Connection timed out
[1741686158.908266] [ohm:4089367:0]        ib_iface.c:1059 UCX  ERROR ibv_create_cq(cqe=256) failed: Connection timed out
[1741686158.913677] [ohm:4089267:0]        ib_iface.c:1059 UCX  ERROR ibv_create_cq(cqe=256) failed: Connection timed out
[1741686158.918271] [ohm:4089298:0]        ib_iface.c:1059 UCX  ERROR ibv_create_cq(cqe=256) failed: Connection timed out
[1741686158.919246] [ohm:4089381:0]        ib_iface.c:1059 UCX  ERROR ibv_create_cq(cqe=256) failed: Connection timed out
[1741686158.920461] [ohm:4089374:0]        ib_iface.c:1059 UCX  ERROR ibv_create_cq(cqe=256) failed: Connection timed out
[1741686158.920934] [ohm:4089325:0]        ib_iface.c:1059 UCX  ERROR ibv_create_cq(cqe=256) failed: Connection timed out
[1741686158.922694] [ohm:4089271:0]        ib_iface.c:1059 UCX  ERROR ibv_create_cq(cqe=256) failed: Connection timed out
[1741686158.923159] [ohm:4089273:0]        ib_iface.c:1059 UCX  ERROR ibv_create_cq(cqe=256) failed: Connection timed out
[1741686158.923402] [ohm:4089331:0]        ib_iface.c:1059 UCX  ERROR ibv_create_cq(cqe=256) failed: Connection timed out
[1741686158.923492] [ohm:4089327:0]        ib_iface.c:1059 UCX  ERROR ibv_create_cq(cqe=256) failed: Connection timed out
[1741686158.924317] [ohm:4089384:0]        ib_iface.c:1059 UCX  ERROR ibv_create_cq(cqe=256) failed: Connection timed out
[1741686158.924388] [ohm:4089372:0]        ib_iface.c:1059 UCX  ERROR ibv_create_cq(cqe=256) failed: Connection timed out


           ************************************************************
           *        Program running with 64 parallel MPI-processes    *
           *              working on a common directory               *
           ************************************************************
------------------------------------------------------------------------------
                             ORCA STARTUP CALCULATIONS
                           -- RI-GTO INTEGRALS CHOSEN --
------------------------------------------------------------------------------
------------------------------------------------------------------------------
                   ___                                                        
                  /   \      - P O W E R E D   B Y -                         
                 /     \                                                     
                 |  |  |   _    _      __       _____    __    __             
                 |  |  |  | |  | |    /  \     |  _  \  |  |  /  |          
                  \  \/   | |  | |   /    \    | | | |  |  | /  /          
                 / \  \   | |__| |  /  /\  \   | |_| |  |  |/  /          
                |  |  |   |  __  | /  /__\  \  |    /   |      \           
                |  |  |   | |  | | |   __   |  |    \   |  |\   \          
                \     /   | |  | | |  |  |  |  | |\  \  |  | \   \       
                 \___/    |_|  |_| |__|  |__|  |_| \__\ |__|  \__/        
                                                                              
                      - O R C A' S   B I G   F R I E N D -                    
                                      &                                       
                       - I N T E G R A L  F E E D E R -                       
                                                                              
 v1 FN, 2020, v2 2021, v3 2022-2024                                           
------------------------------------------------------------------------------


----------------------
SHARK INTEGRAL PACKAGE
----------------------

Number of atoms                             ...     30
Number of basis functions                   ...    882
Number of shells                            ...    322
Maximum angular momentum                    ...      3
Integral batch strategy                     ... SHARK/LIBINT Hybrid
RI-J (if used) integral strategy            ... SPLIT-RIJ (Revised 2003 algorithm where possible)
Printlevel                                  ...      1
Contraction scheme used                     ... SEGMENTED contraction
Prescreening option                         ... SCHWARTZ
   Thresh                                   ... 2.500e-11
   Tcut                                     ... 2.500e-12
   Tpresel                                  ... 2.500e-12 
Coulomb Range Separation                    ... NOT USED
Exchange Range Separation                   ... Long Range
   Mu parameter                             ... 3.000e-01
   Scaling (regular/separated)              ... 1.500e-01 8.500e-01
Multipole approximations                    ... NOT USED
Finite Nucleus Model                        ... NOT USED
CABS basis                                  ... NOT available
Auxiliary Coulomb fitting basis             ... AVAILABLE
   # of basis functions in Aux-J            ...   1014
   # of shells in Aux-J                     ...    330
   Maximum angular momentum in Aux-J        ...      4
Auxiliary J/K fitting basis                 ... NOT available
Auxiliary Correlation fitting basis         ... NOT available
Auxiliary 'external' fitting basis          ... NOT available

Checking pre-screening integrals            ... done (  0.0 sec) Dimension = 322
Check shell pair data                       ... done (  0.0 sec)
Shell pair information
Shell pair cut-off parameter TPreSel        ...   2.5e-12
Total number of shell pairs                 ...     52003
Shell pairs after pre-screening             ...     45535
Total number of primitive shell pairs       ...    129718
Primitive shell pairs kept                  ...     85111
          la=0 lb=0:   8781 shell pairs
          la=1 lb=0:  12027 shell pairs
          la=1 lb=1:   4151 shell pairs
          la=2 lb=0:   8186 shell pairs
          la=2 lb=1:   5647 shell pairs
          la=2 lb=2:   1960 shell pairs
          la=3 lb=0:   2098 shell pairs
          la=3 lb=1:   1505 shell pairs
          la=3 lb=2:   1033 shell pairs
          la=3 lb=3:    147 shell pairs

Calculating one electron integrals          ... done (  0.2 sec)
Calculating RI/J V-Matrix + Cholesky decomp.... done (  0.1 sec)
Calculating Nuclear repulsion               ... done (  0.0 sec) ENN=   1479.619696517802 Eh

Diagonalization of the overlap matrix:
Smallest eigenvalue                        ... 3.924e-07
Time for diagonalization                   ...    0.130 sec
Threshold for overlap eigenvalues          ... 1.000e-07
Number of eigenvalues below threshold      ... 0

IMPORTANT:
Smallest eigenvalue of S below the DiffSThresh (1.000e-06) while
Thresh>1e-12 and/or TCut>1e-13! In order to avoid SCF convergence issues,
Thresh will be set to at least 1e-12 and TCut to at least 1e-13.
This can be turned off by adding %SCF DiffSThresh -1 END to the input.

Time for construction of square roots      ...    0.151 sec
Total time needed                          ...    0.300 sec

-------------------
DFT GRID GENERATION
-------------------

General Integration Accuracy     IntAcc      ... 4.388
Radial Grid Type                 RadialGrid  ... OptM3 with GC (2021)
Angular Grid (max. ang.)         AngularGrid ... 4 (Lebedev-302)
Angular grid pruning method      GridPruning ... 4 (adaptive)
Weight generation scheme         WeightScheme... mBecke (2022)
Basis function cutoff            BFCut       ... 1.0000e-11
Integration weight cutoff        WCut        ... 1.0000e-14
Partially contracted basis set               ... off
Rotationally invariant grid construction     ... off
Angular grids for H and He will be reduced by one unit
Diffuse basis detected: some atoms will have their outermost
                        angular grid increased by 1.

Total number of grid points                  ...   151907
Total number of batches                      ...     2389
Average number of points per batch           ...       63
Average number of grid points per atom       ...     5064

--------------------
COSX GRID GENERATION
--------------------

GRIDX 1
-------
General Integration Accuracy     IntAcc      ... 3.816
Radial Grid Type                 RadialGrid  ... OptM3 with GC (2021)
Angular Grid (max. ang.)         AngularGrid ... 1 (Lebedev-50)
Angular grid pruning method      GridPruning ... 4 (adaptive)
Weight generation scheme         WeightScheme... mBecke (2022)
Basis function cutoff            BFCut       ... 1.0000e-11
Integration weight cutoff        WCut        ... 1.0000e-14
Partially contracted basis set               ... on
Rotationally invariant grid construction     ... off
Angular grids for H and He will be reduced by one unit
Diffuse basis detected: some atoms will have their outermost
                        angular grid increased by 1.

Total number of grid points                  ...    19029
Total number of batches                      ...      166
Average number of points per batch           ...      114
Average number of grid points per atom       ...      634
UseSFitting                                  ... on

GRIDX 2
-------
General Integration Accuracy     IntAcc      ... 4.020
Radial Grid Type                 RadialGrid  ... OptM3 with GC (2021)
Angular Grid (max. ang.)         AngularGrid ... 2 (Lebedev-110)
Angular grid pruning method      GridPruning ... 4 (adaptive)
Weight generation scheme         WeightScheme... mBecke (2022)
Basis function cutoff            BFCut       ... 1.0000e-11
Integration weight cutoff        WCut        ... 1.0000e-14
Partially contracted basis set               ... on
Rotationally invariant grid construction     ... off
Angular grids for H and He will be reduced by one unit
Diffuse basis detected: some atoms will have their outermost
                        angular grid increased by 1.

Total number of grid points                  ...    45778
Total number of batches                      ...      375
Average number of points per batch           ...      122
Average number of grid points per atom       ...     1526
UseSFitting                                  ... on

GRIDX 3
-------
General Integration Accuracy     IntAcc      ... 4.338
Radial Grid Type                 RadialGrid  ... OptM3 with GC (2021)
Angular Grid (max. ang.)         AngularGrid ... 3 (Lebedev-194)
Angular grid pruning method      GridPruning ... 4 (adaptive)
Weight generation scheme         WeightScheme... mBecke (2022)
Basis function cutoff            BFCut       ... 1.0000e-11
Integration weight cutoff        WCut        ... 1.0000e-14
Partially contracted basis set               ... on
Rotationally invariant grid construction     ... off
Angular grids for H and He will be reduced by one unit
Diffuse basis detected: some atoms will have their outermost
                        angular grid increased by 1.

Total number of grid points                  ...   100720
Total number of batches                      ...      802
Average number of points per batch           ...      125
Average number of grid points per atom       ...     3357
UseSFitting                                  ... on
Initializing property integral containers    ... done (  0.0 sec)

SHARK setup successfully completed in   5.2 seconds

Maximum memory used throughout the entire STARTUP-calculation: 80.7 MB
[1741686166.252723] [ohm:4089614:0]        ib_iface.c:1059 UCX  ERROR ibv_create_cq(cqe=256) failed: Connection timed out
[1741686166.254894] [ohm:4089600:0]        ib_iface.c:1059 UCX  ERROR ibv_create_cq(cqe=256) failed: Connection timed out
[1741686166.264342] [ohm:4089606:0]        ib_iface.c:1059 UCX  ERROR ibv_create_cq(cqe=256) failed: Connection timed out
[1741686166.270230] [ohm:4089613:0]        ib_iface.c:1059 UCX  ERROR ibv_create_cq(cqe=256) failed: Connection timed out
[1741686166.278496] [ohm:4089617:0]        ib_iface.c:1059 UCX  ERROR ibv_create_cq(cqe=256) failed: Connection timed out
[1741686166.282221] [ohm:4089612:0]        ib_iface.c:1059 UCX  ERROR ibv_create_cq(cqe=256) failed: Connection timed out
[1741686166.284007] [ohm:4089605:0]        ib_iface.c:1059 UCX  ERROR ibv_create_cq(cqe=256) failed: Connection timed out
[1741686166.288831] [ohm:4089604:0]        ib_iface.c:1059 UCX  ERROR ibv_create_cq(cqe=256) failed: Connection timed out
[1741686166.293106] [ohm:4089616:0]        ib_iface.c:1059 UCX  ERROR ibv_create_cq(cqe=256) failed: Connection timed out
[1741686166.297319] [ohm:4089608:0]        ib_iface.c:1059 UCX  ERROR ibv_create_cq(cqe=256) failed: Connection timed out
[1741686166.305223] [ohm:4089603:0]        ib_iface.c:1059 UCX  ERROR ibv_create_cq(cqe=256) failed: Connection timed out
[1741686166.315814] [ohm:4089669:0]        ib_iface.c:1059 UCX  ERROR ibv_create_cq(cqe=256) failed: Connection timed out
[1741686166.319887] [ohm:4089611:0]        ib_iface.c:1059 UCX  ERROR ibv_create_cq(cqe=256) failed: Connection timed out
[1741686166.319940] [ohm:4089637:0]        ib_iface.c:1059 UCX  ERROR ibv_create_cq(cqe=256) failed: Connection timed out
[1741686166.332440] [ohm:4089615:0]        ib_iface.c:1059 UCX  ERROR ibv_create_cq(cqe=256) failed: Connection timed out
[1741686166.374235] [ohm:4089679:0]        ib_iface.c:1059 UCX  ERROR ibv_create_cq(cqe=256) failed: Connection timed out
[1741686166.377314] [ohm:4089667:0]        ib_iface.c:1059 UCX  ERROR ibv_create_cq(cqe=256) failed: Connection timed out
[1741686166.379650] [ohm:4089648:0]        ib_iface.c:1059 UCX  ERROR ibv_create_cq(cqe=256) failed: Connection timed out
[1741686166.379852] [ohm:4089657:0]        ib_iface.c:1059 UCX  ERROR ibv_create_cq(cqe=256) failed: Connection timed out
[1741686166.383403] [ohm:4089665:0]        ib_iface.c:1059 UCX  ERROR ibv_create_cq(cqe=256) failed: Connection timed out
[1741686166.396103] [ohm:4089664:0]        ib_iface.c:1059 UCX  ERROR ibv_create_cq(cqe=256) failed: Connection timed out
[1741686166.398887] [ohm:4089646:0]        ib_iface.c:1059 UCX  ERROR ibv_create_cq(cqe=256) failed: Connection timed out
[1741686166.399838] [ohm:4089632:0]        ib_iface.c:1059 UCX  ERROR ibv_create_cq(cqe=256) failed: Connection timed out
[1741686166.416808] [ohm:4089673:0]        ib_iface.c:1059 UCX  ERROR ibv_create_cq(cqe=256) failed: Connection timed out
[1741686166.420288] [ohm:4089643:0]        ib_iface.c:1059 UCX  ERROR ibv_create_cq(cqe=256) failed: Connection timed out
[1741686166.426686] [ohm:4089680:0]        ib_iface.c:1059 UCX  ERROR ibv_create_cq(cqe=256) failed: Connection timed out
[1741686166.431132] [ohm:4089666:0]        ib_iface.c:1059 UCX  ERROR ibv_create_cq(cqe=256) failed: Connection timed out
[1741686166.432987] [ohm:4089740:0]        ib_iface.c:1059 UCX  ERROR ibv_create_cq(cqe=256) failed: Connection timed out
[1741686166.458347] [ohm:4089601:0]        ib_iface.c:1059 UCX  ERROR ibv_create_cq(cqe=256) failed: Connection timed out
[1741686166.467400] [ohm:4089671:0]        ib_iface.c:1059 UCX  ERROR ibv_create_cq(cqe=256) failed: Connection timed out
[1741686166.470935] [ohm:4089723:0]        ib_iface.c:1059 UCX  ERROR ibv_create_cq(cqe=256) failed: Connection timed out
[1741686166.471436] [ohm:4089676:0]        ib_iface.c:1059 UCX  ERROR ibv_create_cq(cqe=256) failed: Connection timed out
[1741686166.473672] [ohm:4089607:0]        ib_iface.c:1059 UCX  ERROR ibv_create_cq(cqe=256) failed: Connection timed out
[1741686166.476368] [ohm:4089636:0]        ib_iface.c:1059 UCX  ERROR ibv_create_cq(cqe=256) failed: Connection timed out
[1741686166.488999] [ohm:4089672:0]        ib_iface.c:1059 UCX  ERROR ibv_create_cq(cqe=256) failed: Connection timed out
[1741686166.496992] [ohm:4089704:0]        ib_iface.c:1059 UCX  ERROR ibv_create_cq(cqe=256) failed: Connection timed out
[1741686166.500210] [ohm:4089743:0]        ib_iface.c:1059 UCX  ERROR ibv_create_cq(cqe=256) failed: Connection timed out
[1741686166.500209] [ohm:4089659:0]        ib_iface.c:1059 UCX  ERROR ibv_create_cq(cqe=256) failed: Connection timed out
[1741686166.505150] [ohm:4089670:0]        ib_iface.c:1059 UCX  ERROR ibv_create_cq(cqe=256) failed: Connection timed out
[1741686166.507177] [ohm:4089675:0]        ib_iface.c:1059 UCX  ERROR ibv_create_cq(cqe=256) failed: Connection timed out
[1741686166.507709] [ohm:4089653:0]        ib_iface.c:1059 UCX  ERROR ibv_create_cq(cqe=256) failed: Connection timed out
[1741686166.515063] [ohm:4089720:0]        ib_iface.c:1059 UCX  ERROR ibv_create_cq(cqe=256) failed: Connection timed out
[1741686166.515543] [ohm:4089748:0]        ib_iface.c:1059 UCX  ERROR ibv_create_cq(cqe=256) failed: Connection timed out
[1741686166.519352] [ohm:4089698:0]        ib_iface.c:1059 UCX  ERROR ibv_create_cq(cqe=256) failed: Connection timed out
[1741686166.529649] [ohm:4089731:0]        ib_iface.c:1059 UCX  ERROR ibv_create_cq(cqe=256) failed: Connection timed out
[1741686166.534970] [ohm:4089708:0]        ib_iface.c:1059 UCX  ERROR ibv_create_cq(cqe=256) failed: Connection timed out
[1741686166.546472] [ohm:4089668:0]        ib_iface.c:1059 UCX  ERROR ibv_create_cq(cqe=256) failed: Connection timed out
[1741686166.546829] [ohm:4089733:0]        ib_iface.c:1059 UCX  ERROR ibv_create_cq(cqe=256) failed: Connection timed out
[1741686166.552782] [ohm:4089701:0]        ib_iface.c:1059 UCX  ERROR ibv_create_cq(cqe=256) failed: Connection timed out
[1741686166.556919] [ohm:4089684:0]        ib_iface.c:1059 UCX  ERROR ibv_create_cq(cqe=256) failed: Connection timed out
[1741686166.561229] [ohm:4089712:0]        ib_iface.c:1059 UCX  ERROR ibv_create_cq(cqe=256) failed: Connection timed out
[1741686166.564116] [ohm:4089677:0]        ib_iface.c:1059 UCX  ERROR ibv_create_cq(cqe=256) failed: Connection timed out
[1741686166.564120] [ohm:4089691:0]        ib_iface.c:1059 UCX  ERROR ibv_create_cq(cqe=256) failed: Connection timed out
[1741686166.564478] [ohm:4089602:0]        ib_iface.c:1059 UCX  ERROR ibv_create_cq(cqe=256) failed: Connection timed out
[1741686166.565294] [ohm:4089697:0]        ib_iface.c:1059 UCX  ERROR ibv_create_cq(cqe=256) failed: Connection timed out
[1741686166.565860] [ohm:4089610:0]        ib_iface.c:1059 UCX  ERROR ibv_create_cq(cqe=256) failed: Connection timed out
[1741686166.567087] [ohm:4089688:0]        ib_iface.c:1059 UCX  ERROR ibv_create_cq(cqe=256) failed: Connection timed out
[1741686166.567132] [ohm:4089609:0]        ib_iface.c:1059 UCX  ERROR ibv_create_cq(cqe=256) failed: Connection timed out
[1741686166.569472] [ohm:4089716:0]        ib_iface.c:1059 UCX  ERROR ibv_create_cq(cqe=256) failed: Connection timed out
[1741686166.569741] [ohm:4089727:0]        ib_iface.c:1059 UCX  ERROR ibv_create_cq(cqe=256) failed: Connection timed out
[1741686166.570372] [ohm:4089678:0]        ib_iface.c:1059 UCX  ERROR ibv_create_cq(cqe=256) failed: Connection timed out
[1741686166.573180] [ohm:4089631:0]        ib_iface.c:1059 UCX  ERROR ibv_create_cq(cqe=256) failed: Connection timed out
[1741686166.573237] [ohm:4089751:0]        ib_iface.c:1059 UCX  ERROR ibv_create_cq(cqe=256) failed: Connection timed out
[1741686166.573857] [ohm:4089674:0]        ib_iface.c:1059 UCX  ERROR ibv_create_cq(cqe=256) failed: Connection timed out


           ************************************************************
           *        Program running with 64 parallel MPI-processes    *
           *              working on a common directory               *
           ************************************************************
-------------------------------------------------------------------------------
                                 ORCA GUESS
                   Start orbitals & Density for SCF / CASSCF
-------------------------------------------------------------------------------

------------
SCF SETTINGS
------------
Hamiltonian:
 Density Functional     Method          .... DFT(GTOs)
  Functional kind                       .... Exchange-Correlation
  Functional name                       .... wB97M-V exchange-correlation functional
  Functional family                     .... Hybrid MGGA
  Functional refs                              
    [ 0] N. Mardirossian and M. Head-Gordon.,  J. Chem. Phys. 144, 214110 (2016), doi: 10.1063/1.4952647
  Fraction of HF Exchange (short range) .... 0.1500
  Fraction of HF Exchange (long range)  .... 1.0000
  Range separation parameter mu         .... 0.3000
  Functional external parameters        .... 17
    Parameter  0 _cx00      =  8.500000e-01 : u^00 coefficient for exchange
    Parameter  1 _cx01      =  1.007000e+00 : u^01 coefficient for exchange
    Parameter  2 _cx10      =  2.590000e-01 : u^10 coefficient for exchange
    Parameter  3 _css00     =  4.430000e-01 : u^00 coefficient for same-spin correlation
    Parameter  4 _css04     = -1.437000e+00 : u^04 coefficient for same-spin correlation
    Parameter  5 _css10     = -4.535000e+00 : u^10 coefficient for same-spin correlation
    Parameter  6 _css20     = -3.390000e+00 : u^20 coefficient for same-spin correlation
    Parameter  7 _css43     =  4.278000e+00 : u^43 coefficient for same-spin correlation
    Parameter  8 _cos00     =  1.000000e+00 : u^00 coefficient for opposite-spin correlation
    Parameter  9 _cos10     =  1.358000e+00 : u^10 coefficient for opposite-spin correlation
    Parameter 10 _cos20     =  2.924000e+00 : u^20 coefficient for opposite-spin correlation
    Parameter 11 _cos21     = -8.812000e+00 : u^21 coefficient for opposite-spin correlation
    Parameter 12 _cos60     = -1.390000e+00 : u^60 coefficient for opposite-spin correlation
    Parameter 13 _cos61     =  9.142000e+00 : u^61 coefficient for opposite-spin correlation
    Parameter 14 _alpha     =  1.000000e+00 : fraction of HF exchange
    Parameter 15 _beta      = -8.500000e-01 : fraction of short-range exchange
    Parameter 16 _omega     =  3.000000e-01 : range-separation constant
 Long-range corrected/Screened/Range-Separated Hybrid DFT is turned on
   Amount of maximum screened exact exchange              ....  0.850000
   Range separation parameter mu (erf(mu*r12)/r12)        ....  0.300000
 RI-approximation to the Coulomb term is turned on
   Number of AuxJ basis functions       .... 1014
   RIJ-COSX (HFX calculated with COS-X)).... on


General Settings:
 Integral files         IntName         .... orca
 Hartree-Fock type      HFTyp           .... UHF
 Total Charge           Charge          ....    0
 Multiplicity           Mult            ....    3
 Number of Electrons    NEL             ....  132
 Basis Dimension        Dim             ....  882
 Nuclear Repulsion      ENuc            ....   1479.6196965178 Eh

Convergence Acceleration:
 AO-DIIS                CNVDIIS         .... on
   Start iteration      DIISMaxIt       ....    12
   Startup error        DIISStart       ....  0.200000
   # of expansion vecs  DIISMaxEq       ....     5
   Bias factor          DIISBfac        ....   1.050
   Max. coefficient     DIISMaxC        ....  10.000
 MO-DIIS                CNVKDIIS        .... off
 Trust-Rad. Augm. Hess. CNVTRAH         .... auto
   Auto Start mean grad. ratio tolernc. ....  1.125000
   Auto Start start iteration           ....    50
   Auto Start num. interpolation iter.  ....    10
   Max. Number of Micro iterations      ....    24
   Max. Number of Macro iterations      .... Maxiter - #DIIS iter
   Number of Davidson start vectors     ....     2
   Converg. threshold    (grad. norm)   ....   1.000e-05
   Grad. Scal. Fac. for Micro threshold ....   0.100
   Minimum threshold for Micro iter.    ....   1.000e-02
   NR start threshold (gradient norm)   ....   1.000e-04
   Initial trust radius                 ....   0.400
   Minimum AH scaling param. (alpha)    ....   1.000
   Maximum AH scaling param. (alpha)    .... 1000.000
   Quad. conv. algorithm                .... NR
   White noise on init. David. guess    .... on
   Maximum white noise                  ....   0.010
   Pseudo random numbers                .... off
   Inactive MOs                         .... canonical
   Orbital update algorithm             .... Taylor
   Preconditioner                       .... Diag
   Full preconditioner red. dimension   ....   250
 SOSCF                  CNVSOSCF        .... on
   Start iteration      SOSCFMaxIt      ....   150
   Startup grad/error   SOSCFStart      ....  0.003300
   Hessian update       SOSCFHessUp     .... L-BFGS
 Level Shifting         CNVShift        .... on
   Level shift para.    LevelShift      ....    0.2500
   Turn off err/grad.   ShiftErr        ....    0.0010
 Zerner damping         CNVZerner       .... off
 Static damping         CNVDamp         .... on
   Fraction old density DampFac         ....    0.7000
   Max. Damping (<1)    DampMax         ....    0.9800
   Min. Damping (>=0)   DampMin         ....    0.0000
   Turn off err/grad.   DampErr         ....    0.1000

SCF Procedure:
 Maximum # iterations   MaxIter         ....   125
 SCF integral mode      SCFMode         .... Direct
   Integral package                     .... SHARK and LIBINT hybrid scheme
 Reset frequency        DirectResetFreq ....    20
 Integral Threshold     Thresh          ....  1.000e-12 Eh
 Primitive CutOff       TCut            ....  1.000e-13 Eh

Convergence Tolerance:
 Convergence Check Mode ConvCheckMode   .... Total+1el-Energy
 Convergence forced     ConvForced      .... 1
 Energy Change          TolE            ....  1.000e-08 Eh
 1-El. energy change                    ....  1.000e-05 Eh
 Orbital Gradient       TolG            ....  1.000e-05
 Orbital Rotation angle TolX            ....  1.000e-05
 DIIS Error             TolErr          ....  5.000e-07

------------------------------
INITIAL GUESS: MODEL POTENTIAL
------------------------------
Loading Hartree-Fock densities                     ... done
Calculating cut-offs                               ... done
Initializing the effective Hamiltonian             ... done
Setting up the integral package (SHARK)            ... done
Starting the Coulomb interaction                   ... done (   0.1 sec)
Making the grid                                    ... done (   0.3 sec)
Mapping shells                                     ... done
Starting the XC term evaluation                    ... done (   0.2 sec)
  promolecular density results
     # of electrons  =    131.997998076
     EX              =   -113.761987383
     EC              =     -4.510543965
     EX+EC           =   -118.272531348
Transforming the Hamiltonian                       ... done (   0.1 sec)
Diagonalizing the Hamiltonian                      ... done (   0.1 sec)
Back transforming the eigenvectors                 ... done (   0.2 sec)
Now organizing SCF variables                       ... done
                      ------------------
                      INITIAL GUESS DONE (   1.4 sec)
                      ------------------
             **** ENERGY FILE WAS UPDATED (orca.en.tmp) ****
Finished Guess after   4.2 sec
Maximum memory used throughout the entire GUESS-calculation: 73.1 MB
[1741686171.038456] [ohm:4089948:0]        ib_iface.c:1059 UCX  ERROR ibv_create_cq(cqe=256) failed: Connection timed out
[1741686171.046510] [ohm:4090040:0]        ib_iface.c:1059 UCX  ERROR ibv_create_cq(cqe=256) failed: Connection timed out
[1741686171.054414] [ohm:4089943:0]        ib_iface.c:1059 UCX  ERROR ibv_create_cq(cqe=256) failed: Connection timed out
[1741686171.054960] [ohm:4089949:0]        ib_iface.c:1059 UCX  ERROR ibv_create_cq(cqe=256) failed: Connection timed out
[1741686171.083528] [ohm:4089951:0]        ib_iface.c:1059 UCX  ERROR ibv_create_cq(cqe=256) failed: Connection timed out
[1741686171.088931] [ohm:4089945:0]        ib_iface.c:1059 UCX  ERROR ibv_create_cq(cqe=256) failed: Connection timed out
[1741686171.091107] [ohm:4089946:0]        ib_iface.c:1059 UCX  ERROR ibv_create_cq(cqe=256) failed: Connection timed out
[1741686171.132494] [ohm:4090076:0]        ib_iface.c:1059 UCX  ERROR ibv_create_cq(cqe=256) failed: Connection timed out
[1741686171.142648] [ohm:4089950:0]        ib_iface.c:1059 UCX  ERROR ibv_create_cq(cqe=256) failed: Connection timed out
[1741686171.159021] [ohm:4089954:0]        ib_iface.c:1059 UCX  ERROR ibv_create_cq(cqe=256) failed: Connection timed out
[1741686171.161545] [ohm:4089964:0]        ib_iface.c:1059 UCX  ERROR ibv_create_cq(cqe=256) failed: Connection timed out
[1741686171.166731] [ohm:4089987:0]        ib_iface.c:1059 UCX  ERROR ibv_create_cq(cqe=256) failed: Connection timed out
[1741686171.189989] [ohm:4089991:0]        ib_iface.c:1059 UCX  ERROR ibv_create_cq(cqe=256) failed: Connection timed out
[1741686171.191042] [ohm:4090099:0]        ib_iface.c:1059 UCX  ERROR ibv_create_cq(cqe=256) failed: Connection timed out
[1741686171.193013] [ohm:4090032:0]        ib_iface.c:1059 UCX  ERROR ibv_create_cq(cqe=256) failed: Connection timed out
[1741686171.203962] [ohm:4089952:0]        ib_iface.c:1059 UCX  ERROR ibv_create_cq(cqe=256) failed: Connection timed out
[1741686171.206523] [ohm:4089990:0]        ib_iface.c:1059 UCX  ERROR ibv_create_cq(cqe=256) failed: Connection timed out
[1741686171.207012] [ohm:4090061:0]        ib_iface.c:1059 UCX  ERROR ibv_create_cq(cqe=256) failed: Connection timed out
[1741686171.210721] [ohm:4090035:0]        ib_iface.c:1059 UCX  ERROR ibv_create_cq(cqe=256) failed: Connection timed out
[1741686171.211609] [ohm:4089969:0]        ib_iface.c:1059 UCX  ERROR ibv_create_cq(cqe=256) failed: Connection timed out
[1741686171.230816] [ohm:4089947:0]        ib_iface.c:1059 UCX  ERROR ibv_create_cq(cqe=256) failed: Connection timed out
[1741686171.231883] [ohm:4089997:0]        ib_iface.c:1059 UCX  ERROR ibv_create_cq(cqe=256) failed: Connection timed out
[1741686171.234297] [ohm:4090047:0]        ib_iface.c:1059 UCX  ERROR ibv_create_cq(cqe=256) failed: Connection timed out
[1741686171.235908] [ohm:4089953:0]        ib_iface.c:1059 UCX  ERROR ibv_create_cq(cqe=256) failed: Connection timed out
[1741686171.237748] [ohm:4089957:0]        ib_iface.c:1059 UCX  ERROR ibv_create_cq(cqe=256) failed: Connection timed out
[1741686171.247684] [ohm:4090038:0]        ib_iface.c:1059 UCX  ERROR ibv_create_cq(cqe=256) failed: Connection timed out
[1741686171.257391] [ohm:4089966:0]        ib_iface.c:1059 UCX  ERROR ibv_create_cq(cqe=256) failed: Connection timed out
[1741686171.259705] [ohm:4089982:0]        ib_iface.c:1059 UCX  ERROR ibv_create_cq(cqe=256) failed: Connection timed out
[1741686171.266763] [ohm:4089962:0]        ib_iface.c:1059 UCX  ERROR ibv_create_cq(cqe=256) failed: Connection timed out
[1741686171.270301] [ohm:4090051:0]        ib_iface.c:1059 UCX  ERROR ibv_create_cq(cqe=256) failed: Connection timed out
[1741686171.272047] [ohm:4090001:0]        ib_iface.c:1059 UCX  ERROR ibv_create_cq(cqe=256) failed: Connection timed out
[1741686171.278917] [ohm:4089958:0]        ib_iface.c:1059 UCX  ERROR ibv_create_cq(cqe=256) failed: Connection timed out
[1741686171.280596] [ohm:4089956:0]        ib_iface.c:1059 UCX  ERROR ibv_create_cq(cqe=256) failed: Connection timed out
[1741686171.304524] [ohm:4090005:0]        ib_iface.c:1059 UCX  ERROR ibv_create_cq(cqe=256) failed: Connection timed out
[1741686171.315133] [ohm:4089968:0]        ib_iface.c:1059 UCX  ERROR ibv_create_cq(cqe=256) failed: Connection timed out
[1741686171.331026] [ohm:4089970:0]        ib_iface.c:1059 UCX  ERROR ibv_create_cq(cqe=256) failed: Connection timed out
[1741686171.331431] [ohm:4089944:0]        ib_iface.c:1059 UCX  ERROR ibv_create_cq(cqe=256) failed: Connection timed out
[1741686171.332730] [ohm:4090013:0]        ib_iface.c:1059 UCX  ERROR ibv_create_cq(cqe=256) failed: Connection timed out
[1741686171.332998] [ohm:4090054:0]        ib_iface.c:1059 UCX  ERROR ibv_create_cq(cqe=256) failed: Connection timed out
[1741686171.333119] [ohm:4089984:0]        ib_iface.c:1059 UCX  ERROR ibv_create_cq(cqe=256) failed: Connection timed out
[1741686171.334941] [ohm:4090020:0]        ib_iface.c:1059 UCX  ERROR ibv_create_cq(cqe=256) failed: Connection timed out
[1741686171.335757] [ohm:4090092:0]        ib_iface.c:1059 UCX  ERROR ibv_create_cq(cqe=256) failed: Connection timed out
[1741686171.336060] [ohm:4090018:0]        ib_iface.c:1059 UCX  ERROR ibv_create_cq(cqe=256) failed: Connection timed out
[1741686171.343998] [ohm:4089965:0]        ib_iface.c:1059 UCX  ERROR ibv_create_cq(cqe=256) failed: Connection timed out
[1741686171.346705] [ohm:4089963:0]        ib_iface.c:1059 UCX  ERROR ibv_create_cq(cqe=256) failed: Connection timed out
[1741686171.349439] [ohm:4089960:0]        ib_iface.c:1059 UCX  ERROR ibv_create_cq(cqe=256) failed: Connection timed out
[1741686171.361249] [ohm:4090064:0]        ib_iface.c:1059 UCX  ERROR ibv_create_cq(cqe=256) failed: Connection timed out
[1741686171.364629] [ohm:4089978:0]        ib_iface.c:1059 UCX  ERROR ibv_create_cq(cqe=256) failed: Connection timed out
[1741686171.371363] [ohm:4089975:0]        ib_iface.c:1059 UCX  ERROR ibv_create_cq(cqe=256) failed: Connection timed out
[1741686171.373417] [ohm:4089967:0]        ib_iface.c:1059 UCX  ERROR ibv_create_cq(cqe=256) failed: Connection timed out
[1741686171.373437] [ohm:4090056:0]        ib_iface.c:1059 UCX  ERROR ibv_create_cq(cqe=256) failed: Connection timed out
[1741686171.376984] [ohm:4090072:0]        ib_iface.c:1059 UCX  ERROR ibv_create_cq(cqe=256) failed: Connection timed out
[1741686171.377093] [ohm:4089961:0]        ib_iface.c:1059 UCX  ERROR ibv_create_cq(cqe=256) failed: Connection timed out
[1741686171.378473] [ohm:4089974:0]        ib_iface.c:1059 UCX  ERROR ibv_create_cq(cqe=256) failed: Connection timed out
[1741686171.378836] [ohm:4090029:0]        ib_iface.c:1059 UCX  ERROR ibv_create_cq(cqe=256) failed: Connection timed out
[1741686171.380455] [ohm:4090011:0]        ib_iface.c:1059 UCX  ERROR ibv_create_cq(cqe=256) failed: Connection timed out
[1741686171.380969] [ohm:4089959:0]        ib_iface.c:1059 UCX  ERROR ibv_create_cq(cqe=256) failed: Connection timed out
[1741686171.382480] [ohm:4090085:0]        ib_iface.c:1059 UCX  ERROR ibv_create_cq(cqe=256) failed: Connection timed out
[1741686171.387360] [ohm:4090009:0]        ib_iface.c:1059 UCX  ERROR ibv_create_cq(cqe=256) failed: Connection timed out
[1741686171.387488] [ohm:4090022:0]        ib_iface.c:1059 UCX  ERROR ibv_create_cq(cqe=256) failed: Connection timed out
[1741686171.388450] [ohm:4090027:0]        ib_iface.c:1059 UCX  ERROR ibv_create_cq(cqe=256) failed: Connection timed out
[1741686171.387512] [ohm:4090043:0]        ib_iface.c:1059 UCX  ERROR ibv_create_cq(cqe=256) failed: Connection timed out
[1741686171.387479] [ohm:4090058:0]        ib_iface.c:1059 UCX  ERROR ibv_create_cq(cqe=256) failed: Connection timed out
[1741686171.390135] [ohm:4089955:0]        ib_iface.c:1059 UCX  ERROR ibv_create_cq(cqe=256) failed: Connection timed out


           ************************************************************
           *        Program running with 64 parallel MPI-processes    *
           *              working on a common directory               *
           ************************************************************

-------------------------------------------------------------------------------------------
                                      ORCA LEAN-SCF
                              memory conserving SCF solver
-------------------------------------------------------------------------------------------

----------------------------------------D-I-I-S--------------------------------------------
Iteration    Energy (Eh)           Delta-E    RMSDP     MaxDP     DIISErr   Damp  Time(sec)
-------------------------------------------------------------------------------------------
               ***  Starting incremental Fock matrix formation  ***
    1    -908.0472654177713139     0.00e+00  1.90e-03  3.52e-01  1.45e-01  0.700  10.9
    2    -908.3195355593481963    -2.72e-01  1.53e-03  2.38e-01  7.10e-02  0.700   7.9
                               ***Turning on AO-DIIS***
    3    -908.4438884481494370    -1.24e-01  1.09e-03  1.59e-01  2.82e-02  0.700   7.2
    4    -908.5192767938494853    -7.54e-02  2.52e-03  3.68e-01  1.93e-02  0.000   7.0
    5    -908.6866509486296763    -1.67e-01  2.20e-04  2.68e-02  4.00e-03  0.000   7.0
                              *** Initializing SOSCF ***
---------------------------------------S-O-S-C-F--------------------------------------
Iteration    Energy (Eh)           Delta-E    RMSDP     MaxDP     MaxGrad    Time(sec)
--------------------------------------------------------------------------------------
    6    -908.6875587090796671    -9.08e-04  1.08e-04  1.07e-02  1.82e-03     8.6
               *** Restarting incremental Fock matrix formation ***
    7    -908.6879407029402955    -3.82e-04  2.33e-04  2.39e-02  2.90e-03     8.6
               *** Scaled step length from 0.201314 to 0.200000 ***
    8    -908.6883391964531711    -3.98e-04  1.15e-03  1.72e-01  3.34e-03     8.0
               *** Scaled step length from 0.283769 to 0.200000 ***
    9    -908.6900914253767496    -1.75e-03  1.05e-03  2.04e-01  6.39e-03     8.9
   10    -908.6913679712076828    -1.28e-03  9.55e-04  2.13e-01  7.86e-03     8.2
   11    -908.6933355242274502    -1.97e-03  1.60e-03  2.37e-01  8.59e-03     9.5
   12    -908.6968015835889219    -3.47e-03  4.90e-04  1.21e-01  2.12e-03     8.6
   13    -908.6973094604529706    -5.08e-04  2.41e-04  4.41e-02  1.59e-03     7.9
   14    -908.6974855368987392    -1.76e-04  1.06e-04  2.09e-02  5.29e-04     9.0
   15    -908.6975215778541042    -3.60e-05  4.11e-05  9.95e-03  3.53e-04     7.4
   16    -908.6975330231282442    -1.14e-05  3.68e-05  8.62e-03  1.80e-04     8.0
   17    -908.6975353899658785    -2.37e-06  1.16e-05  2.16e-03  1.18e-04     7.2
   18    -908.6975366164026582    -1.23e-06  8.47e-06  1.52e-03  8.55e-05     7.7
   19    -908.6975368828655064    -2.66e-07  3.96e-06  8.55e-04  6.56e-05     7.2
   20    -908.6975370317993566    -1.49e-07  4.57e-06  9.33e-04  3.02e-05     7.4
   21    -908.6975370629177178    -3.11e-08  2.08e-06  4.44e-04  1.27e-05     6.9
   22    -908.6975370243378620     3.86e-08  2.52e-06  6.21e-04  9.65e-06     7.0
   23    -908.6975370819757245    -5.76e-08  2.76e-06  5.28e-04  3.19e-06     7.2
   24    -908.6975371027212987    -2.07e-08  2.23e-06  4.29e-04  1.58e-06     7.0
                  *** Gradient check signals convergence ***

               *****************************************************
               *                     SUCCESS                       *
               *           SCF CONVERGED AFTER  24 CYCLES          *
               *****************************************************

Recomputing exchange energy using gridx3       ... done (    8.648 sec)
Old exchange energy                            :    -35.095306666 Eh
New exchange energy                            :    -35.095295940 Eh
Exchange energy change after final integration :      0.000010726 Eh
Total energy after final integration           :   -908.697526377 Eh
             **** ENERGY FILE WAS UPDATED (orca.en.tmp) ****

----------------
TOTAL SCF ENERGY
----------------

Total Energy       :       -908.69752637684132 Eh          -24726.91678 eV

Components:
Nuclear Repulsion  :       1479.61969651780169 Eh           40262.49885 eV
Electronic Energy  :      -2388.31723362052253 Eh          -64989.41592 eV
One Electron Energy:      -4176.21060966844925 Eh         -113640.46806 eV
Two Electron Energy:       1787.89337604792649 Eh           48651.05213 eV

Virial components:
Potential Energy   :      -1816.21675113981883 Eh          -49421.77035 eV
Kinetic Energy     :        907.51922476297750 Eh           24694.85357 eV
Virial Ratio       :          2.00129837647701

DFT components:
N(Alpha)           :       66.999946071221 electrons
N(Beta)            :       64.999951473332 electrons
N(Total)           :      131.999897544553 electrons
E(XC)              :      -86.555857252779 Eh       

---------------
SCF CONVERGENCE
---------------

  Last Energy change         ...    2.0746e-08  Tolerance :   1.0000e-08
  Last MAX-Density change    ...    4.2883e-04  Tolerance :   1.0000e-07
  Last RMS-Density change    ...    2.2274e-06  Tolerance :   5.0000e-09
  Last DIIS Error            ...    1.8156e-03  Tolerance :   5.0000e-07
  Last Orbital Gradient      ...    1.5775e-06  Tolerance :   1.0000e-05
  Last Orbital Rotation      ...    8.0982e-06  Tolerance :   1.0000e-05


----------------------
UHF SPIN CONTAMINATION
----------------------

Warning: in a DFT calculation there is little theoretical justification to 
         calculate <S**2> as in Hartree-Fock theory. We will do it anyways
         but you should keep in mind that the values have only limited relevance

Expectation value of <S**2>     :     2.008144
Ideal value S*(S+1) for S=1.0   :     2.000000
Deviation                       :     0.008144

----------------
ORBITAL ENERGIES
----------------
                 SPIN UP ORBITALS
  NO   OCC          E(Eh)            E(eV) 
   0   1.0000     -19.322112      -525.7814 
   1   1.0000     -19.320865      -525.7475 
   2   1.0000     -19.316545      -525.6299 
   3   1.0000     -19.310518      -525.4659 
   4   1.0000     -14.579042      -396.7159 
   5   1.0000     -14.578768      -396.7085 
   6   1.0000     -14.561593      -396.2411 
   7   1.0000     -14.557698      -396.1351 
   8   1.0000     -10.500013      -285.7199 
   9   1.0000     -10.499473      -285.7052 
  10   1.0000     -10.463059      -284.7143 
  11   1.0000     -10.462115      -284.6886 
  12   1.0000     -10.437332      -284.0142 
  13   1.0000     -10.399426      -282.9828 
  14   1.0000     -10.398797      -282.9657 
  15   1.0000     -10.377524      -282.3868 
  16   1.0000     -10.359313      -281.8912 
  17   1.0000     -10.351861      -281.6885 
  18   1.0000      -1.243888       -33.8479 
  19   1.0000      -1.234034       -33.5798 
  20   1.0000      -1.203654       -32.7531 
  21   1.0000      -1.197195       -32.5773 
  22   1.0000      -1.135348       -30.8944 
  23   1.0000      -1.126750       -30.6604 
  24   1.0000      -1.080639       -29.4057 
  25   1.0000      -1.077619       -29.3235 
  26   1.0000      -0.982708       -26.7408 
  27   1.0000      -0.963406       -26.2156 
  28   1.0000      -0.859361       -23.3844 
  29   1.0000      -0.855134       -23.2694 
  30   1.0000      -0.825147       -22.4534 
  31   1.0000      -0.817476       -22.2446 
  32   1.0000      -0.805340       -21.9144 
  33   1.0000      -0.800113       -21.7722 
  34   1.0000      -0.707965       -19.2647 
  35   1.0000      -0.702924       -19.1275 
  36   1.0000      -0.700219       -19.0539 
  37   1.0000      -0.694684       -18.9033 
  38   1.0000      -0.660849       -17.9826 
  39   1.0000      -0.641077       -17.4446 
  40   1.0000      -0.638236       -17.3673 
  41   1.0000      -0.608015       -16.5449 
  42   1.0000      -0.596151       -16.2221 
  43   1.0000      -0.592359       -16.1189 
  44   1.0000      -0.584205       -15.8970 
  45   1.0000      -0.568973       -15.4826 
  46   1.0000      -0.564412       -15.3584 
  47   1.0000      -0.557779       -15.1779 
  48   1.0000      -0.551911       -15.0183 
  49   1.0000      -0.549321       -14.9478 
  50   1.0000      -0.540082       -14.6964 
  51   1.0000      -0.539009       -14.6672 
  52   1.0000      -0.535811       -14.5802 
  53   1.0000      -0.513024       -13.9601 
  54   1.0000      -0.504901       -13.7391 
  55   1.0000      -0.492622       -13.4049 
  56   1.0000      -0.490787       -13.3550 
  57   1.0000      -0.465691       -12.6721 
  58   1.0000      -0.417396       -11.3579 
  59   1.0000      -0.411530       -11.1983 
  60   1.0000      -0.411057       -11.1854 
  61   1.0000      -0.400772       -10.9056 
  62   1.0000      -0.388904       -10.5826 
  63   1.0000      -0.382156       -10.3990 
  64   1.0000      -0.378261       -10.2930 
  65   1.0000      -0.329037        -8.9536 
  66   1.0000      -0.228462        -6.2168 
  67   0.0000       0.004776         0.1299 
  68   0.0000       0.010045         0.2734 
  69   0.0000       0.030445         0.8284 
  70   0.0000       0.036862         1.0031 
  71   0.0000       0.039048         1.0625 
  72   0.0000       0.055769         1.5175 
  73   0.0000       0.059902         1.6300 
  74   0.0000       0.063058         1.7159 
  75   0.0000       0.067252         1.8300 
  76   0.0000       0.068372         1.8605 
  77   0.0000       0.078342         2.1318 

                 SPIN DOWN ORBITALS
  NO   OCC          E(Eh)            E(eV) 
   0   1.0000     -19.319052      -525.6981 
   1   1.0000     -19.317969      -525.6687 
   2   1.0000     -19.316266      -525.6223 
   3   1.0000     -19.309676      -525.4430 
   4   1.0000     -14.578347      -396.6970 
   5   1.0000     -14.575783      -396.6272 
   6   1.0000     -14.561575      -396.2406 
   7   1.0000     -14.556859      -396.1123 
   8   1.0000     -10.500020      -285.7201 
   9   1.0000     -10.499537      -285.7069 
  10   1.0000     -10.463346      -284.7221 
  11   1.0000     -10.462071      -284.6874 
  12   1.0000     -10.436488      -283.9913 
  13   1.0000     -10.389479      -282.7121 
  14   1.0000     -10.387788      -282.6661 
  15   1.0000     -10.376411      -282.3565 
  16   1.0000     -10.359593      -281.8989 
  17   1.0000     -10.351843      -281.6880 
  18   1.0000      -1.240257       -33.7491 
  19   1.0000      -1.233265       -33.5589 
  20   1.0000      -1.197871       -32.5957 
  21   1.0000      -1.195816       -32.5398 
  22   1.0000      -1.128407       -30.7055 
  23   1.0000      -1.124195       -30.5909 
  24   1.0000      -1.077154       -29.3109 
  25   1.0000      -1.076185       -29.2845 
  26   1.0000      -0.967508       -26.3272 
  27   1.0000      -0.955435       -25.9987 
  28   1.0000      -0.854497       -23.2521 
  29   1.0000      -0.845901       -23.0181 
  30   1.0000      -0.819109       -22.2891 
  31   1.0000      -0.812314       -22.1042 
  32   1.0000      -0.800486       -21.7823 
  33   1.0000      -0.799556       -21.7570 
  34   1.0000      -0.701424       -19.0867 
  35   1.0000      -0.700311       -19.0564 
  36   1.0000      -0.693514       -18.8715 
  37   1.0000      -0.688622       -18.7383 
  38   1.0000      -0.650356       -17.6971 
  39   1.0000      -0.636887       -17.3306 
  40   1.0000      -0.634922       -17.2771 
  41   1.0000      -0.600241       -16.3334 
  42   1.0000      -0.590993       -16.0817 
  43   1.0000      -0.587692       -15.9919 
  44   1.0000      -0.568084       -15.4584 
  45   1.0000      -0.564264       -15.3544 
  46   1.0000      -0.561028       -15.2664 
  47   1.0000      -0.549817       -14.9613 
  48   1.0000      -0.548148       -14.9159 
  49   1.0000      -0.542282       -14.7562 
  50   1.0000      -0.536094       -14.5879 
  51   1.0000      -0.530427       -14.4336 
  52   1.0000      -0.525601       -14.3023 
  53   1.0000      -0.507173       -13.8009 
  54   1.0000      -0.496024       -13.4975 
  55   1.0000      -0.491629       -13.3779 
  56   1.0000      -0.473425       -12.8825 
  57   1.0000      -0.447155       -12.1677 
  58   1.0000      -0.413247       -11.2450 
  59   1.0000      -0.410628       -11.1738 
  60   1.0000      -0.397938       -10.8284 
  61   1.0000      -0.391712       -10.6590 
  62   1.0000      -0.382795       -10.4164 
  63   1.0000      -0.380556       -10.3555 
  64   1.0000      -0.334029        -9.0894 
  65   0.0000      -0.087775        -2.3885 
  66   0.0000       0.004934         0.1342 
  67   0.0000       0.009980         0.2716 
  68   0.0000       0.027620         0.7516 
  69   0.0000       0.035524         0.9667 
  70   0.0000       0.038386         1.0445 
  71   0.0000       0.052899         1.4395 
  72   0.0000       0.057268         1.5583 
  73   0.0000       0.061380         1.6702 
  74   0.0000       0.064440         1.7535 
  75   0.0000       0.067168         1.8277 
*Only the first 10 virtual orbitals were printed.

                    ********************************
                    * MULLIKEN POPULATION ANALYSIS *
                    ********************************

--------------------------------------------
MULLIKEN ATOMIC CHARGES AND SPIN POPULATIONS
--------------------------------------------
   0 O :   -0.689151    0.030980
   1 O :   -0.671300    0.157743
   2 O :   -0.653321    0.010168
   3 O :   -0.657723    0.065308
   4 N :   -0.063750    0.017504
   5 N :   -0.060782    0.162950
   6 N :    0.035625    0.002249
   7 N :    0.048227    0.034124
[...]
[1741686595.277541] [ohm:4093388:0]        ib_iface.c:1059 UCX  ERROR ibv_create_cq(cqe=256) failed: Connection timed out
[1741686595.278747] [ohm:4093408:0]        ib_iface.c:1059 UCX  ERROR ibv_create_cq(cqe=256) failed: Connection timed out
[1741686595.279621] [ohm:4093425:0]        ib_iface.c:1059 UCX  ERROR ibv_create_cq(cqe=256) failed: Connection timed out
[1741686595.280694] [ohm:4093451:0]        ib_iface.c:1059 UCX  ERROR ibv_create_cq(cqe=256) failed: Connection timed out
[1741686595.282067] [ohm:4093403:0]        ib_iface.c:1059 UCX  ERROR ibv_create_cq(cqe=256) failed: Connection timed out
[1741686595.284148] [ohm:4093355:0]        ib_iface.c:1059 UCX  ERROR ibv_create_cq(cqe=256) failed: Connection timed out
[1741686595.284512] [ohm:4093369:0]        ib_iface.c:1059 UCX  ERROR ibv_create_cq(cqe=256) failed: Connection timed out
[1741686595.284649] [ohm:4093441:0]        ib_iface.c:1059 UCX  ERROR ibv_create_cq(cqe=256) failed: Connection timed out
[1741686595.286819] [ohm:4093413:0]        ib_iface.c:1059 UCX  ERROR ibv_create_cq(cqe=256) failed: Connection timed out
[1741686595.286852] [ohm:4093401:0]        ib_iface.c:1059 UCX  ERROR ibv_create_cq(cqe=256) failed: Connection timed out


           ************************************************************
           *        Program running with 64 parallel MPI-processes    *
           *              working on a common directory               *
           ************************************************************

------------------------------------------------------------------------------
                              ORCA PROPERTY CALCULATIONS
------------------------------------------------------------------------------

GBWName                                 ... orca.gbw
Number of atoms                         ...     30
Number of basis functions               ...    882
Max core memory                         ...   1024 MB

Electric properties:
Dipole moment                           ... YES
Quadrupole moment                       ...  NO
Static polarizability (Dipole/Dipole)   ...  NO
Static polarizability (Dipole/Quad.)    ...  NO
Static polarizability (Quad./Quad.)     ...  NO
Static polarizability (Velocity)        ...  NO

Atomic electric properties:
Dipole moment                           ...  NO
Quadrupole moment                       ...  NO
Static polarizability                   ...  NO

Choice of electric origin               ... Center of mass
Position of electric origin             ...    -0.005393    -0.019151     0.042582

General magnetic properties:
Magnetizability                         ...  NO

EPR properties:
g-Tensor (aka g-matrix)                 ...  NO
Zero-Field splitting spin-orbit         ...  NO
Zero-field splitting spin-spin          ...  NO
Hyperfine couplings                     ...  NO (   0 nuclei)
Quadrupole couplings                    ...  NO (   0 nuclei)
Contact density                         ...  NO (   0 nuclei)

NMR properties:
Chemical shifts                         ...  NO (   0 nuclei)
Spin-rotation constants                 ...  NO (   0 nuclei)
Spin-spin couplings                     ...  NO (   0 nuclei,    0 pairs)

Choice of magnetic origin               ... GIAO
Position of magnetic origin             ...     0.000000     0.000000     0.000000

Properties with geometric perturbations:
SCF Hessian                             ...  NO
IR spectrum                             ...  NO
VCD spectrum                            ...  NO
X-ray spectroscopy properties:
SCF XES/XAS/RIXS spectra                ...  NO


-------------
DIPOLE MOMENT
-------------

Method             : SCF
Type of density    : Electron Density
Multiplicity       :   3
Irrep              :   0
Energy             :  -908.6975263768413242 Eh
Relativity type    : 
Basis              : AO
                                X                 Y                 Z
Electronic contribution:     -2.754604079     -10.232005598      -6.459152424
Nuclear contribution   :      2.298084515      11.181740819       9.020099382
                        -----------------------------------------
Total Dipole Moment    :     -0.456519564       0.949735222       2.560946958
                        -----------------------------------------
Magnitude (a.u.)       :      2.769270017
Magnitude (Debye)      :      7.038924990



--------------------
Rotational spectrum 
--------------------
 
Rotational constants in cm-1:             0.018335             0.016759             0.013652 
Rotational constants in MHz :           549.667375           502.422684           409.280284 

Dipole components along the rotational axes: 
x,y,z [a.u.] :    -0.172186     1.258321     2.460861 
x,y,z [Debye]:    -0.437663     3.198398     6.255011 

 

-------------
DIPOLE MOMENT
-------------

Method             : TDA/CIS
Type of density    : Electron Density
Level              : Relaxed density
State              :   3
Multiplicity       :   3
Irrep              :   0
Energy             :     0.0000000000000000 Eh
Relativity type    : 
Basis              : AO
                                X                 Y                 Z
Electronic contribution:     -3.257134636     -10.067153379      -6.416425903
Nuclear contribution   :      2.298084515      11.181740819       9.020099382
                        -----------------------------------------
Total Dipole Moment    :     -0.959050121       1.114587441       2.603673479
                        -----------------------------------------
Magnitude (a.u.)       :      2.990183587
Magnitude (Debye)      :      7.600442661



--------------------
Rotational spectrum 
--------------------
 
Rotational constants in cm-1:             0.018335             0.016759             0.013652 
Rotational constants in MHz :           549.667375           502.422684           409.280284 

Dipole components along the rotational axes: 
x,y,z [a.u.] :    -0.617742     1.545508     2.484149 
x,y,z [Debye]:    -1.570177     3.928368     6.314206 

 

Dipole moment calculation done in   0.3 sec 

Maximum memory used throughout the entire PROP-calculation: 82.2 MB
[1741686598.204669] [ohm:4093672:0]        ib_iface.c:1059 UCX  ERROR ibv_create_cq(cqe=256) failed: Connection timed out
[1741686598.211867] [ohm:4093667:0]        ib_iface.c:1059 UCX  ERROR ibv_create_cq(cqe=256) failed: Connection timed out
[1741686598.212656] [ohm:4093666:0]        ib_iface.c:1059 UCX  ERROR ibv_create_cq(cqe=256) failed: Connection timed out
[1741686598.222441] [ohm:4093669:0]        ib_iface.c:1059 UCX  ERROR ibv_create_cq(cqe=256) failed: Connection timed out
[1741686598.280650] [ohm:4093668:0]        ib_iface.c:1059 UCX  ERROR ibv_create_cq(cqe=256) failed: Connection timed out
[1741686598.280737] [ohm:4093680:0]        ib_iface.c:1059 UCX  ERROR ibv_create_cq(cqe=256) failed: Connection timed out
[1741686598.308101] [ohm:4093679:0]        ib_iface.c:1059 UCX  ERROR ibv_create_cq(cqe=256) failed: Connection timed out
[1741686598.313194] [ohm:4093670:0]        ib_iface.c:1059 UCX  ERROR ibv_create_cq(cqe=256) failed: Connection timed out
[1741686598.317931] [ohm:4093759:0]        ib_iface.c:1059 UCX  ERROR ibv_create_cq(cqe=256) failed: Connection timed out
[1741686598.341010] [ohm:4093686:0]        ib_iface.c:1059 UCX  ERROR ibv_create_cq(cqe=256) failed: Connection timed out
[1741686598.345511] [ohm:4093795:0]        ib_iface.c:1059 UCX  ERROR ibv_create_cq(cqe=256) failed: Connection timed out
[1741686598.347467] [ohm:4093784:0]        ib_iface.c:1059 UCX  ERROR ibv_create_cq(cqe=256) failed: Connection timed out
[1741686598.354810] [ohm:4093723:0]        ib_iface.c:1059 UCX  ERROR ibv_create_cq(cqe=256) failed: Connection timed out
[1741686598.357184] [ohm:4093685:0]        ib_iface.c:1059 UCX  ERROR ibv_create_cq(cqe=256) failed: Connection timed out
[1741686598.362456] [ohm:4093676:0]        ib_iface.c:1059 UCX  ERROR ibv_create_cq(cqe=256) failed: Connection timed out
[1741686598.368198] [ohm:4093742:0]        ib_iface.c:1059 UCX  ERROR ibv_create_cq(cqe=256) failed: Connection timed out
[1741686598.370794] [ohm:4093769:0]        ib_iface.c:1059 UCX  ERROR ibv_create_cq(cqe=256) failed: Connection timed out
[1741686598.370853] [ohm:4093799:0]        ib_iface.c:1059 UCX  ERROR ibv_create_cq(cqe=256) failed: Connection timed out
[1741686598.373298] [ohm:4093693:0]        ib_iface.c:1059 UCX  ERROR ibv_create_cq(cqe=256) failed: Connection timed out
[1741686598.374302] [ohm:4093692:0]        ib_iface.c:1059 UCX  ERROR ibv_create_cq(cqe=256) failed: Connection timed out
[1741686598.377241] [ohm:4093780:0]        ib_iface.c:1059 UCX  ERROR ibv_create_cq(cqe=256) failed: Connection timed out
[1741686598.402421] [ohm:4093689:0]        ib_iface.c:1059 UCX  ERROR ibv_create_cq(cqe=256) failed: Connection timed out
[1741686598.402775] [ohm:4093698:0]        ib_iface.c:1059 UCX  ERROR ibv_create_cq(cqe=256) failed: Connection timed out
[1741686598.409726] [ohm:4093776:0]        ib_iface.c:1059 UCX  ERROR ibv_create_cq(cqe=256) failed: Connection timed out
[1741686598.409719] [ohm:4093677:0]        ib_iface.c:1059 UCX  ERROR ibv_create_cq(cqe=256) failed: Connection timed out
[1741686598.412885] [ohm:4093713:0]        ib_iface.c:1059 UCX  ERROR ibv_create_cq(cqe=256) failed: Connection timed out
[1741686598.419546] [ohm:4093683:0]        ib_iface.c:1059 UCX  ERROR ibv_create_cq(cqe=256) failed: Connection timed out
[1741686598.427938] [ohm:4093731:0]        ib_iface.c:1059 UCX  ERROR ibv_create_cq(cqe=256) failed: Connection timed out
[1741686598.428219] [ohm:4093790:0]        ib_iface.c:1059 UCX  ERROR ibv_create_cq(cqe=256) failed: Connection timed out
[1741686598.435834] [ohm:4093766:0]        ib_iface.c:1059 UCX  ERROR ibv_create_cq(cqe=256) failed: Connection timed out
[1741686598.440712] [ohm:4093749:0]        ib_iface.c:1059 UCX  ERROR ibv_create_cq(cqe=256) failed: Connection timed out
[1741686598.447079] [ohm:4093762:0]        ib_iface.c:1059 UCX  ERROR ibv_create_cq(cqe=256) failed: Connection timed out
[1741686598.452334] [ohm:4093805:0]        ib_iface.c:1059 UCX  ERROR ibv_create_cq(cqe=256) failed: Connection timed out
[1741686598.457918] [ohm:4093694:0]        ib_iface.c:1059 UCX  ERROR ibv_create_cq(cqe=256) failed: Connection timed out
[1741686598.470179] [ohm:4093757:0]        ib_iface.c:1059 UCX  ERROR ibv_create_cq(cqe=256) failed: Connection timed out
[1741686598.476114] [ohm:4093746:0]        ib_iface.c:1059 UCX  ERROR ibv_create_cq(cqe=256) failed: Connection timed out
[1741686598.477498] [ohm:4093684:0]        ib_iface.c:1059 UCX  ERROR ibv_create_cq(cqe=256) failed: Connection timed out
[1741686598.480262] [ohm:4093695:0]        ib_iface.c:1059 UCX  ERROR ibv_create_cq(cqe=256) failed: Connection timed out
[1741686598.483767] [ohm:4093687:0]        ib_iface.c:1059 UCX  ERROR ibv_create_cq(cqe=256) failed: Connection timed out
[1741686598.489785] [ohm:4093717:0]        ib_iface.c:1059 UCX  ERROR ibv_create_cq(cqe=256) failed: Connection timed out
[1741686598.494042] [ohm:4093751:0]        ib_iface.c:1059 UCX  ERROR ibv_create_cq(cqe=256) failed: Connection timed out
[1741686598.496937] [ohm:4093765:0]        ib_iface.c:1059 UCX  ERROR ibv_create_cq(cqe=256) failed: Connection timed out
[1741686598.502079] [ohm:4093675:0]        ib_iface.c:1059 UCX  ERROR ibv_create_cq(cqe=256) failed: Connection timed out
[1741686598.507518] [ohm:4093690:0]        ib_iface.c:1059 UCX  ERROR ibv_create_cq(cqe=256) failed: Connection timed out
[1741686598.517454] [ohm:4093700:0]        ib_iface.c:1059 UCX  ERROR ibv_create_cq(cqe=256) failed: Connection timed out
[1741686598.518146] [ohm:4093705:0]        ib_iface.c:1059 UCX  ERROR ibv_create_cq(cqe=256) failed: Connection timed out
[1741686598.519976] [ohm:4093812:0]        ib_iface.c:1059 UCX  ERROR ibv_create_cq(cqe=256) failed: Connection timed out
[1741686598.520528] [ohm:4093791:0]        ib_iface.c:1059 UCX  ERROR ibv_create_cq(cqe=256) failed: Connection timed out
[1741686598.535078] [ohm:4093671:0]        ib_iface.c:1059 UCX  ERROR ibv_create_cq(cqe=256) failed: Connection timed out
[1741686598.535301] [ohm:4093688:0]        ib_iface.c:1059 UCX  ERROR ibv_create_cq(cqe=256) failed: Connection timed out
[1741686598.537003] [ohm:4093798:0]        ib_iface.c:1059 UCX  ERROR ibv_create_cq(cqe=256) failed: Connection timed out
[1741686598.537068] [ohm:4093673:0]        ib_iface.c:1059 UCX  ERROR ibv_create_cq(cqe=256) failed: Connection timed out
[1741686598.541187] [ohm:4093804:0]        ib_iface.c:1059 UCX  ERROR ibv_create_cq(cqe=256) failed: Connection timed out
[1741686598.543032] [ohm:4093727:0]        ib_iface.c:1059 UCX  ERROR ibv_create_cq(cqe=256) failed: Connection timed out
[1741686598.544877] [ohm:4093678:0]        ib_iface.c:1059 UCX  ERROR ibv_create_cq(cqe=256) failed: Connection timed out
[1741686598.544923] [ohm:4093682:0]        ib_iface.c:1059 UCX  ERROR ibv_create_cq(cqe=256) failed: Connection timed out
[1741686598.545449] [ohm:4093691:0]        ib_iface.c:1059 UCX  ERROR ibv_create_cq(cqe=256) failed: Connection timed out
[1741686598.547440] [ohm:4093773:0]        ib_iface.c:1059 UCX  ERROR ibv_create_cq(cqe=256) failed: Connection timed out
[1741686598.548319] [ohm:4093708:0]        ib_iface.c:1059 UCX  ERROR ibv_create_cq(cqe=256) failed: Connection timed out
[1741686598.548443] [ohm:4093704:0]        ib_iface.c:1059 UCX  ERROR ibv_create_cq(cqe=256) failed: Connection timed out
[1741686598.550207] [ohm:4093787:0]        ib_iface.c:1059 UCX  ERROR ibv_create_cq(cqe=256) failed: Connection timed out
[1741686598.550870] [ohm:4093674:0]        ib_iface.c:1059 UCX  ERROR ibv_create_cq(cqe=256) failed: Connection timed out
[1741686598.551423] [ohm:4093740:0]        ib_iface.c:1059 UCX  ERROR ibv_create_cq(cqe=256) failed: Connection timed out
[1741686598.551577] [ohm:4093681:0]        ib_iface.c:1059 UCX  ERROR ibv_create_cq(cqe=256) failed: Connection timed out

--------------------------------
SUGGESTED CITATIONS FOR THIS RUN
--------------------------------

Below you find a list of papers that are relevant to this ORCA run
We neither can nor want to force you to cite these papers, but we appreciate if you do
You receive ORCA, which is the product of decades of hard work by many enthusiastic individuals, for free
The only thing we kindly ask in return is that you cite our papers,
We deeply appreciate it, if you show your appreciation for ORCA by not just citing the generic ORCA reference.

Please note that relegating all ORCA citations to the supporting information does *not* help us.
SI sections are not indexed - citations you put there will not count into any citation statistics
But we need these citations in order to attract the funding resources that allow us to do what we are doing

Therefore, if you are a happy ORCA user, please consider citing a few of the papers listed below in the main body of your paper

In addition to the list printed below, the program has created the file orca.bibtex that contains the list in bibtex format
You can import this file easily into all common literature databanks and citation aid programs


List of essential papers. We consider these as the minimum necessary citations

  1. Neese,F.
     Software update: the ORCA program system, version 5.0
     WIRES Comput. Molec. Sci., 2022 12(1)e1606
     doi.org/10.1002/wcms.1606

List of papers to cite with high priority. The work reported in these papers was absolutely
necessary for this run to complete.
Our perspective: the developers of density functionals and basis sets usually get cited in chemistry papers
Good! But without the algorithms to do something with them, the functionals or basis sets would not do anything.
Hence, in our opinion, the algorithm design and method developments papers are equally worthy of getting cited

  1. Neese,F.; Olbrich,G.
     Efficient use of the resolution of the identity approximation in time-dependent density functional calculations with hybrid density functionals
     Chem. Phys. Lett., 2002 362 170-178
     doi.org/10.1016/s0009-2614(02)01053-9
  2. Neese,F.
     An improvement of the resolution of the identity approximation for the formation of the Coulomb matrix
     J. Comp. Chem., 2003 24(14)1740-1747
     doi.org/10.1002/jcc.10318
  3. Neese,F.; Wennmohs,F.; Hansen,A.; Becker,U.
     Efficient, approximate and parallel Hartree-Fock and hybrid DFT calculations. A 'chain-of-spheres' algorithm for the Hartree-Fock exchange
     Chem. Phys., 2009 356(1-3)98-109
     doi.org/10.1016/j.chemphys.2008.10.036
  4. Petrenko,T.; Kossmann,S.; Neese,F.
     Efficient time-dependent density functional theory approximations for hybrid density functionals: Analytical gradients and parallelization
     J. Chem. Phys., 2011 134 054116
     doi.org/10.1063/1.3533441
  5. Helmich-Paris,B.; de Souza,B.; Neese,F.; Izsák,R.
     An improved chain of spheres for exchange algorithm
     J. Chem. Phys., 2021 155 104109
     doi.org/doi: 10.1063/5.0058766.
  6. Neese,F.
     The SHARK Integral Generation and Digestion System
     J. Comp. Chem., 2022  1-16
     doi.org/10.1002/jcc.26942
  7. Lehtola,S.; Steigemann,C.; Oliveira,M.; Marques,M.
     Recent developments in Libxc - A comprehensive library of functionals for density functional theory
     Software X, 2018 7 
     doi.org/10.1016/j.softx.2017.11.002
  8. Grimme,S.; Antony,J.; Ehrlich,S.; Krieg,H.
     A consistent and accurate ab initio parametrization of density functional dispersion correction (DFT-D) for the 94 elements H-Pu
     J. Chem. Phys., 2010 132 154104-XXXX
     doi.org/10.1063/1.3382344
  9. Grimme,S.; Ehrlich,S.; Goerigk,L.
     Effect of the damping function in dispersion corrected density functional theory
     J. Comput. Chem., 2011 32(7)1456-1465
     doi.org/10.1002/jcc.21759

List of suggested additional citations. These are papers that are important in the 'surrounding' of 
of this run, or papers that preceded the highly important papers. If you like your results we are grateful for a citation.

  1. Izsak,R.; Neese,F.
     An overlap fitted chain of spheres exchange method
     J. Chem. Phys., 2011 135 144105
     doi.org/10.1063/1.3646921
  2. Izsak,R.; Hansen,A.; Neese,F.
     The resolution of identity and chain of spheres approximations for the LPNO-CCSD singles Fock term
     Molec. Phys., 2012 110 2413-2417
     doi.org/10.1080/00268976.2012.687466
  3. Neese,F.
     The ORCA program system
     WIRES Comput. Molec. Sci., 2012 2(1)73-78
     doi.org/10.1002/wcms.81
  4. Izsak,R.; Neese,F.; Klopper,W.
     Robust fitting techniques in the chain of spheres approximation to the Fock exchange: The role of the complementary space
     J. Chem. Phys., 2013 139 
     doi.org/10.1063/1.4819264
  5. Neese,F.
     Software update: the ORCA program system, version 4.0
     WIRES Comput. Molec. Sci., 2018 8(1)1-6
     doi.org/10.1002/wcms.1327
  6. Neese,F.; Wennmohs,F.; Becker,U.; Riplinger,C.
     The ORCA quantum chemistry program package
     J. Chem. Phys., 2020 152 Art. No. L224108
     doi.org/10.1063/5.0004608

List of optional additional citations

  1. Neese,F.
     Approximate second-order SCF convergence for spin unrestricted wavefunctions
     Chem. Phys. Lett., 2000 325(1-3)93-98
     doi.org/10.1016/s0009-2614(00)00662-x

Timings for individual modules:

Sum of individual times          ...      439.861 sec (=   7.331 min)
Startup calculation              ...        7.777 sec (=   0.130 min)   1.8 %
SCF iterations                   ...      210.397 sec (=   3.507 min)  47.8 %
Property integrals               ...        5.167 sec (=   0.086 min)   1.2 %
Property calculations            ...        3.598 sec (=   0.060 min)   0.8 %
CIS module                       ...      212.923 sec (=   3.549 min)  48.4 %
                             ****ORCA TERMINATED NORMALLY****
TOTAL RUN TIME: 0 days 0 hours 7 minutes 21 seconds 920 msec
