7
Properties=species:S:1:pos:R:3:momenta:R:3:forces:R:3 Coordinates=T from=T ORCA-job=T orca=T E=T -153.825440110646=T energy=-4183.557971124559 free_energy=-4183.557971124559 stress="-8.372620396042599e-06 1.724726241465786e-06 -3.4365344143390196e-06 1.724726241465786e-06 1.0718446166697319e-05 -8.938135861533561e-09 -3.4365344143390196e-06 -8.938135861533561e-09 -5.675048356278046e-06" pbc="F F F"
O        0.51987566       1.18624599      -0.01295612       1.94700877       0.04033345      -0.00817448      -0.31540254      -1.22470381      -0.04343060
C        0.47646483      -0.27553639      -0.00835827      -1.40753415       1.06182610      -0.12509188      -0.39410271       0.36167112      -0.14253235
C       -0.83069977      -0.97280844       0.02099375       0.04615783      -0.29968245       0.17030999      -1.21717697       1.56419851      -0.25813402
H        1.01660062      -0.60440030       0.83529740      -0.11020553       0.12841252      -0.11077020       1.07627534      -0.02297144       1.03992923
H        1.01372272      -0.61086910      -0.87707656      -0.25204418      -0.01955911       0.05122303       0.55297277       0.17508748      -0.51368124
H       -1.43716386      -0.76895738      -0.85622837      -0.12672017      -0.42086090       0.07437220      -0.05793801      -0.51725676      -0.02504677
H       -1.41689655      -1.02680527       0.93385260      -0.09666257      -0.49046961      -0.05186867       0.35537212      -0.33602511      -0.05710424
