
                                 *****************
                                 * O   R   C   A *
                                 *****************

                                            #,                                       
                                            ###                                      
                                            ####                                     
                                            #####                                    
                                            ######                                   
                                           ########,                                 
                                     ,,################,,,,,                         
                               ,,#################################,,                 
                          ,,##########################################,,             
                       ,#########################################, ''#####,          
                    ,#############################################,,   '####,        
                  ,##################################################,,,,####,       
                ,###########''''           ''''###############################       
              ,#####''   ,,,,##########,,,,          '''####'''          '####       
            ,##' ,,,,###########################,,,                        '##       
           ' ,,###''''                  '''############,,,                           
         ,,##''                                '''############,,,,        ,,,,,,###''
      ,#''                                            '''#######################'''  
     '                                                          ''''####''''         
             ,#######,   #######,   ,#######,      ##                                
            ,#'     '#,  ##    ##  ,#'     '#,    #''#        ,####,   ,####,        
            ##       ##  ##   ,#'  ##            #'  '#       #'       #'  '#        
            ##       ##  #######   ##           ,######,      #####,   #    #        
            '#,     ,#'  ##    ##  '#,     ,#' ,#      #,     #,   #   #,  ,#        
             '#######'   ##     ##  '#######'  #'      '#     '####' # '####'        



                #########################################################
                #                        -***-                          #
                #          Department of theory and spectroscopy        #
                #                                                       #
                #                      Frank Neese                      #
                #                                                       #
                #     Directorship, Architecture, Infrastructure        #
                #                    SHARK, DRIVERS                     #
                #        Core code/Algorithms in most modules           #
                #                                                       #
                #        Max Planck Institute fuer Kohlenforschung      #
                #                Kaiser Wilhelm Platz 1                 #
                #                 D-45470 Muelheim/Ruhr                 #
                #                      Germany                          #
                #                                                       #
                #                  All rights reserved                  #
                #                        -***-                          #
                #########################################################


                         Program Version 6.0.0  -   RELEASE  -


 With contributions from (in alphabetic order):
   Daniel Aravena         : Magnetic Suceptibility
   Michael Atanasov       : Ab Initio Ligand Field Theory (pilot matlab implementation)
   Alexander A. Auer      : GIAO ZORA, VPT2 properties, NMR spectrum
   Ute Becker             : All parallelization in ORCA, NUMFREQ, NUMCALC
   Giovanni Bistoni       : ED, misc. LED, open-shell LED, HFLD
   Martin Brehm           : Molecular dynamics
   Dmytro Bykov           : pre 5.0 version of the SCF Hessian
   Marcos Casanova-Páez   : Triplet and SCS-CIS(D). UHF-(DLPNO)-IP/EA/STEOM-CCSD. UHF-CVS-IP/STEOM-CCSD
   Vijay G. Chilkuri      : MRCI spin determinant printing, contributions to CSF-ICE
   Pauline Colinet        : FMM embedding
   Dipayan Datta          : RHF DLPNO-CCSD density
   Achintya Kumar Dutta   : EOM-CC, STEOM-CC
   Nicolas Foglia         : Exact transition moments, OPA infrastructure, MCD improvements
   Dmitry Ganyushin       : Spin-Orbit,Spin-Spin,Magnetic field MRCI
   Miquel Garcia          : C-PCM and meta-GGA Hessian, CCSD/C-PCM, Gaussian charge scheme
   Tiago L. C. Gouveia    : GS-ROHF, GS-ROCIS
   Yang Guo               : DLPNO-NEVPT2, F12-NEVPT2, CIM, IAO-localization
   Andreas Hansen         : Spin unrestricted coupled pair/coupled cluster methods
   Ingolf Harden          : AUTO-CI MPn and infrastructure 
   Benjamin Helmich-Paris : MC-RPA, TRAH-(SCF,CASSCF), AVAS, COSX integrals, SCF dyn. polar.
   Lee Huntington         : MR-EOM, pCC
   Robert Izsak           : Overlap fitted RIJCOSX, COSX-SCS-MP3, EOM
   Riya Kayal             : Wick's Theorem for AUTO-CI, AUTO-CI UHF-CCSDT
   Emily Kempfer          : AUTO-CI, RHF CISDT and CCSDT
   Christian Kollmar      : KDIIS, OOCD, Brueckner-CCSD(T), CCSD density, CASPT2, CASPT2-K, improved NEVPT2
   Axel Koslowski         : Symmetry handling
   Simone Kossmann        : Meta GGA functionals, TD-DFT gradient, OOMP2, (MP2 Hessian; deprecated post 5.0)
   Lucas Lang             : DCDCAS
   Marvin Lechner         : AUTO-CI (C++ implementation), FIC-MRCC
   Spencer Leger          : CASSCF response
   Dagmar Lenk            : GEPOL surface, SMD, ORCA-2-JSON
   Dimitrios Liakos       : Extrapolation schemes; Compound Job, initial MDCI parallelization
   Dimitrios Manganas     : Further ROCIS development; embedding schemes. LFT, Crystal Embedding
   Dimitrios Pantazis     : SARC Basis sets
   Anastasios Papadopoulos: AUTO-CI, single reference methods and gradients
   Taras Petrenko         : pre 6.0 DFT Hessian and TD-DFT gradient, (ASA, deprecated), ECA, 1-Electron XAS/XES, NRVS
   Peter Pinski           : DLPNO-MP2, DLPNO-MP2 Gradient
   Christoph Reimann      : Effective Core Potentials
   Marius Retegan         : Local ZFS, SOC
   Christoph Riplinger    : Optimizer, TS searches, QM/MM, DLPNO-CCSD(T), (RO)-DLPNO pert. Triples
   Michael Roemelt        : Original ROCIS implementation
   Masaaki Saitow         : Open-shell DLPNO-CCSD energy and density
   Barbara Sandhoefer     : DKH picture change effects
   Kantharuban Sivalingam : CASSCF convergence/infrastructure, NEVPT2 and variants, FIC-MRCI
   Bernardo de Souza      : ESD, SOC TD-DFT
   Georgi Stoychev        : AutoAux, RI-MP2 NMR, DLPNO-MP2 response, X2C
   Van Anh Tran           : RI-MP2 g-tensors
   Willem Van den Heuvel  : Paramagnetic NMR
   Zikuan Wang            : NOTCH, Electric field optimization 
   Frank Wennmohs         : Technical directorship and infrastructure
   Hang Xu                : AUTO-CI-Response properties 


 We gratefully acknowledge several colleagues who have allowed us to
 interface, adapt or use parts of their codes:
   Stefan Grimme, W. Hujo, H. Kruse, P. Pracht,  : VdW corrections, initial TS optimization,
                  C. Bannwarth, S. Ehlert,         DFT functionals, gCP, sTDA/sTD-DF
                  L. Wittmann, M. Mueller
   Ed Valeev, F. Pavosevic, A. Kumar             : LibInt (2-el integral package), F12 methods
   Garnet Chan, S. Sharma, J. Yang, R. Olivares  : DMRG
   Ulf Ekstrom                                   : XCFun DFT Library
   Mihaly Kallay                                 : mrcc  (arbitrary order and MRCC methods)
   Frank Weinhold                                : gennbo (NPA and NBO analysis)
   Simon Mueller                                 : openCOSMO-RS
   Christopher J. Cramer and Donald G. Truhlar   : smd solvation model
   Lars Goerigk                                  : TD-DFT with DH, B97 family of functionals
   V. Asgeirsson, H. Jonsson                     : NEB implementation
   FAccTs GmbH                                   : IRC, NEB, NEB-TS, DLPNO-Multilevel, CI-OPT
                                                   MM, QMMM, 2- and 3-layer-ONIOM, Crystal-QMMM,
                                                   LR-CPCM, SF, NACMEs, symmetry and pop. for TD-DFT,
                                                   nearIR, NL-DFT gradient (VV10), updates on ESD,
                                                   ML-optimized integration grids, MBIS, APM,
                                                   GOAT, DOCKER, SOLVATOR, interface openCOSMO-RS
   S Lehtola, MJT Oliveira, MAL Marques          : LibXC Library
   Liviu Ungur et al                             : ANISO software


 Your calculation uses the libint2 library for the computation of 2-el integrals
 For citations please refer to: http://libint.valeyev.net

 Your ORCA version has been built with support for libXC version: 6.2.2
 For citations please refer to: https://libxc.gitlab.io

 This ORCA versions uses:
   CBLAS   interface :  Fast vector & matrix operations
   LAPACKE interface :  Fast linear algebra routines
   SCALAPACK package :  Parallel linear algebra routines
   Shared memory     :  Shared parallel matrices
   BLAS/LAPACK       :  OpenBLAS 0.3.27  USE64BITINT DYNAMIC_ARCH NO_AFFINITY Zen SINGLE_THREADED
        Core in use  :  Zen
   Copyright (c) 2011-2014, The OpenBLAS Project


Your calculation utilizes the atom-pairwise dispersion correction
with the Becke-Johnson damping scheme (D3BJ)


Warning: RI is on but no J-basis has been assigned. Assigning Def2/J (nothing to worry about!)
================================================================================

----- Orbital basis set information -----
Your calculation utilizes the basis: def2-TZVPPD
   F. Weigend and R. Ahlrichs, Phys. Chem. Chem. Phys. 7, 3297 (2005).
   D. Rappoport and F. Furche, J. Chem. Phys. 133, 134105 (2010)
   D. Rappoport, J. Chem. Phys. 155, 124102 (2021).

----- AuxJ basis set information -----
Your calculation utilizes the auxiliary basis: def2/J
   F. Weigend, Phys. Chem. Chem. Phys. 8, 1057 (2006).

================================================================================
                                        WARNINGS
                       Please study these warnings very carefully!
================================================================================

Using LibXC functional ID 531 : wB97M-V exchange-correlation functional
[ 1]  N. Mardirossian and M. Head-Gordon.,  J. Chem. Phys. 144, 214110 (2016)
Using LibXC functional ID 531 : wB97M-V exchange-correlation functional
[ 1]  N. Mardirossian and M. Head-Gordon.,  J. Chem. Phys. 144, 214110 (2016)

WARNING: B97M-V or wB97M-V functional requested.
  ===> : libXC variant has now been activated.
         Any manually given DFX/HFX/RangeSep scaling parameters are IGNORED!

Your calculation utilizes LibXC
 by S Lehtola, C Steigemann, MJT Oliveira & MAL Marques
Please cite in your paper:
 S Lehtola, C Steigemann, MJT Oliveira & MAL Marques, SoftwareX, 7, (2018), 1.
   


WARNING: your system is open-shell and RHF/RKS was chosen
  ===> : WILL SWITCH to UHF/UKS

INFO   : Checking CIS options ...

WARNING: CIS/ROCIS methods need fully converged wavefunctions
  ===> : Setting SCFConvForced true
         You can overwrite this default with %scf ConvForced false 


================================================================================
                                       INPUT FILE
================================================================================
NAME = orca.inp
|  1> ! Engrad def2-TZVPPD wB97M-D3BJ 
|  2> %pal nprocs 8 end%pal nprocs 64 end 
|  3> %tddft 
|  4>  Iroot 2 Nroots 3 
|  5> sf true 
|  6> end 
|  7> *xyz 0 3 
|  8> O   3.52289761 -0.08169184 -1.35428884
|  9> O   -1.74088878 0.76449581 -2.3018953
| 10> O   0.08836396 -3.06373643 -0.72951613
| 11> O   -3.65663617 -0.29806744 1.68823522
| 12> N   0.30657546 -1.41137641 0.80521326
| 13> N   -1.51327291 0.42715584 1.63709716
| 14> N   1.61427575 -1.3913475 -1.11343398
| 15> N   -2.77523959 0.29454451 -0.31029276
| 16> C   2.12970843 0.2580466 0.61256185
| 17> C   -0.59353341 1.31414918 -0.38646454
| 18> C   0.83579475 -0.15483504 1.2121418
| 19> C   -0.32471512 1.00241519 1.01552258
| 20> C   3.06575888 1.21568153 1.25930312
| 21> C   0.38940519 2.10851971 -1.18250323
| 22> C   2.51886512 -0.35684202 -0.69221642
| 23> C   -1.73553942 0.80387866 -1.10509803
| 24> C   0.65415998 -2.07492511 -0.32960974
| 25> C   -2.72136269 0.15882237 1.05937538
| 26> H   0.9146271 -0.21671232 2.30188446
| 27> H   0.01394543 1.84854565 1.56854481
| 28> H   4.02184242 0.86561173 1.52945845
| 29> H   3.35127236 2.19700193 0.87750047
| 30> H   2.57942011 1.51189724 2.22042935
| 31> H   -0.0341425 2.75048413 -1.93442104
| 32> H   1.0785773 2.64349536 -0.56023069
| 33> H   0.95847145 1.42039935 -1.85742294
| 34> H   -0.42742319 -1.83183221 1.32694236
| 35> H   -1.52208858 0.47694206 2.65159611
| 36> H   1.72591338 -1.90030931 -1.95744102
| 37> H   -3.57002278 -0.16154979 -0.7718234
| 38> *
| 39> 
| 40>                          ****END OF INPUT****
================================================================================

                     *******************************
                     * Energy+Gradient Calculation *
                     *******************************

---------------------------------
CARTESIAN COORDINATES (ANGSTROEM)
---------------------------------
  O      3.522898   -0.081692   -1.354289
  O     -1.740889    0.764496   -2.301895
  O      0.088364   -3.063736   -0.729516
  O     -3.656636   -0.298067    1.688235
  N      0.306575   -1.411376    0.805213
  N     -1.513273    0.427156    1.637097
  N      1.614276   -1.391347   -1.113434
  N     -2.775240    0.294545   -0.310293
  C      2.129708    0.258047    0.612562
  C     -0.593533    1.314149   -0.386465
  C      0.835795   -0.154835    1.212142
  C     -0.324715    1.002415    1.015523
  C      3.065759    1.215682    1.259303
  C      0.389405    2.108520   -1.182503
  C      2.518865   -0.356842   -0.692216
  C     -1.735539    0.803879   -1.105098
  C      0.654160   -2.074925   -0.329610
  C     -2.721363    0.158822    1.059375
  H      0.914627   -0.216712    2.301884
  H      0.013945    1.848546    1.568545
  H      4.021842    0.865612    1.529458
  H      3.351272    2.197002    0.877500
  H      2.579420    1.511897    2.220429
  H     -0.034142    2.750484   -1.934421
  H      1.078577    2.643495   -0.560231
  H      0.958471    1.420399   -1.857423
  H     -0.427423   -1.831832    1.326942
  H     -1.522089    0.476942    2.651596
  H      1.725913   -1.900309   -1.957441
  H     -3.570023   -0.161550   -0.771823

----------------------------
CARTESIAN COORDINATES (A.U.)
----------------------------
  NO LB      ZA    FRAG     MASS         X           Y           Z
   0 O     8.0000    0    15.999    6.657312   -0.154375   -2.559235
   1 O     8.0000    0    15.999   -3.289803    1.444688   -4.349952
   2 O     8.0000    0    15.999    0.166984   -5.789623   -1.378586
   3 O     8.0000    0    15.999   -6.910041   -0.563266    3.190302
   4 N     7.0000    0    14.007    0.579344   -2.667115    1.521633
   5 N     7.0000    0    14.007   -2.859671    0.807208    3.093665
   6 N     7.0000    0    14.007    3.050539   -2.629266   -2.104085
   7 N     7.0000    0    14.007   -5.244443    0.556608   -0.586368
   8 C     6.0000    0    12.011    4.024566    0.487637    1.157574
   9 C     6.0000    0    12.011   -1.121616    2.483382   -0.730312
  10 C     6.0000    0    12.011    1.579423   -0.292596    2.290616
  11 C     6.0000    0    12.011   -0.613623    1.894290    1.919060
  12 C     6.0000    0    12.011    5.793445    2.297305    2.379738
  13 C     6.0000    0    12.011    0.735869    3.984525   -2.234607
  14 C     6.0000    0    12.011    4.759965   -0.674334   -1.308099
  15 C     6.0000    0    12.011   -3.279694    1.519111   -2.088333
  16 C     6.0000    0    12.011    1.236183   -3.921040   -0.622872
  17 C     6.0000    0    12.011   -5.142630    0.300131    2.001929
  18 H     1.0000    0     1.008    1.728395   -0.409527    4.349931
  19 H     1.0000    0     1.008    0.026353    3.493245    2.964120
  20 H     1.0000    0     1.008    7.600181    1.635769    2.890258
  21 H     1.0000    0     1.008    6.332987    4.151732    1.658236
  22 H     1.0000    0     1.008    4.874398    2.857072    4.196003
  23 H     1.0000    0     1.008   -0.064520    5.197662   -3.655526
  24 H     1.0000    0     1.008    2.038216    4.995482   -1.058683
  25 H     1.0000    0     1.008    1.811249    2.684166   -3.510021
  26 H     1.0000    0     1.008   -0.807713   -3.461661    2.507558
  27 H     1.0000    0     1.008   -2.876331    0.901290    5.010790
  28 H     1.0000    0     1.008    3.261504   -3.591064   -3.699027
  29 H     1.0000    0     1.008   -6.746365   -0.305285   -1.458535

--------------------------------
INTERNAL COORDINATES (ANGSTROEM)
--------------------------------
 O      0   0   0     0.000000000000     0.00000000     0.00000000
 O      1   0   0     5.414927395782     0.00000000     0.00000000
 O      2   1   0     4.524809821907    54.12544884     0.00000000
 O      2   1   3     4.551952360161   102.66427553    54.38043074
 N      3   2   1     2.265679632021    69.95856550    66.87029020
 N      4   2   1     2.263309517356    60.45140537    26.67670721
 N      3   2   1     2.296232662340    66.06831935     0.40644016
 N      4   2   1     2.263219596363     2.45550527   149.22131609
 C      1   2   3     2.434111734419    64.10072684   284.88810626
 C      2   1   3     2.299438663799    53.59676654    95.17520059
 C      5   3   2     1.422870376421   150.87904272   295.66707632
 C      6   4   2     1.459434102121   155.11587676     9.79779864
 C      9   1   2     1.487121170054    94.64744882   226.00877560
 C     10   2   1     1.493609864148    90.66150176    55.44392864
 C      1   2   3     1.233745821413    48.52208444   315.67511546
 C      2   1   3     1.197457026371    79.97338759    74.05047005
 C      3   2   1     1.207393094055    67.14849501    34.80923188
 C      4   2   1     1.216120668042    30.15740718    33.47928619
 H     11   5   3     1.094341081295   105.16795066   208.78518886
 H     12   6   4     1.066049393950   110.52574608   124.88290071
 H     13   9   1     1.053389055695   117.95811596   296.77681354
 H     13   9   1     1.090999971707   126.28084947    63.78189138
 H     13   9   1     1.117153873041   105.71679079   179.50568260
 H     14  10   2     1.075588841168   115.52258378    44.72467234
 H     14  10   2     1.071625054454   112.28746883   173.64990680
 H     14  10   2     1.119313473994   109.20696047   295.01893172
 H      5   3   2     0.993850266259    88.62078835   104.39814506
 H      6   4   2     1.015758092899    89.13594632   171.49067452
 H      7   3   2     0.991893627382    80.98712454   262.33614193
 H      8   4  18     1.026017963419    88.80509028   170.57604627

---------------------------
INTERNAL COORDINATES (A.U.)
---------------------------
 O      0   0   0     0.000000000000     0.00000000     0.00000000
 O      1   0   0    10.232729813096     0.00000000     0.00000000
 O      2   1   0     8.550651371481    54.12544884     0.00000000
 O      2   1   3     8.601943335361   102.66427553    54.38043074
 N      3   2   1     4.281514011724    69.95856550    66.87029020
 N      4   2   1     4.277035144100    60.45140537    26.67670721
 N      3   2   1     4.339250871587    66.06831935     0.40644016
 N      4   2   1     4.276865218050     2.45550527   149.22131609
 C      1   2   3     4.599804557416    64.10072684   284.88810626
 C      2   1   3     4.345309336330    53.59676654    95.17520059
 C      5   3   2     2.688835335505   150.87904272   295.66707632
 C      6   4   2     2.757930763514   155.11587676     9.79779864
 C      9   1   2     2.810251739358    94.64744882   226.00877560
 C     10   2   1     2.822513594163    90.66150176    55.44392864
 C      1   2   3     2.331441721340    48.52208444   315.67511546
 C      2   1   3     2.262865836981    79.97338759    74.05047005
 C      3   2   1     2.281642283751    67.14849501    34.80923188
 C      4   2   1     2.298135008400    30.15740718    33.47928619
 H     11   5   3     2.068004940747   105.16795066   208.78518886
 H     12   6   4     2.014541399797   110.52574608   124.88290071
 H     13   9   1     1.990616827734   117.95811596   296.77681354
 H     13   9   1     2.061691158642   126.28084947    63.78189138
 H     13   9   1     2.111114869496   105.71679079   179.50568260
 H     14  10   2     2.032568342510   115.52258378    44.72467234
 H     14  10   2     2.025077871166   112.28746883   173.64990680
 H     14  10   2     2.115195923856   109.20696047   295.01893172
 H      5   3   2     1.878104821353    88.62078835   104.39814506
 H      6   4   2     1.919504613894    89.13594632   171.49067452
 H      7   3   2     1.874407309733    80.98712454   262.33614193
 H      8   4  18     1.938892959345    88.80509028   170.57604627

---------------------
BASIS SET INFORMATION
---------------------
There are 4 groups of distinct atoms

 Group   1 Type O   : 12s7p3d1f contracted to 6s4p3d1f pattern {621111/4111/111/1}
 Group   2 Type N   : 12s6p3d1f contracted to 6s3p3d1f pattern {621111/411/111/1}
 Group   3 Type C   : 12s6p3d1f contracted to 6s3p3d1f pattern {621111/411/111/1}
 Group   4 Type H   : 5s3p1d contracted to 3s3p1d pattern {311/111/1}

Atom   0O    basis set group =>   1
Atom   1O    basis set group =>   1
Atom   2O    basis set group =>   1
Atom   3O    basis set group =>   1
Atom   4N    basis set group =>   2
Atom   5N    basis set group =>   2
Atom   6N    basis set group =>   2
Atom   7N    basis set group =>   2
Atom   8C    basis set group =>   3
Atom   9C    basis set group =>   3
Atom  10C    basis set group =>   3
Atom  11C    basis set group =>   3
Atom  12C    basis set group =>   3
Atom  13C    basis set group =>   3
Atom  14C    basis set group =>   3
Atom  15C    basis set group =>   3
Atom  16C    basis set group =>   3
Atom  17C    basis set group =>   3
Atom  18H    basis set group =>   4
Atom  19H    basis set group =>   4
Atom  20H    basis set group =>   4
Atom  21H    basis set group =>   4
Atom  22H    basis set group =>   4
Atom  23H    basis set group =>   4
Atom  24H    basis set group =>   4
Atom  25H    basis set group =>   4
Atom  26H    basis set group =>   4
Atom  27H    basis set group =>   4
Atom  28H    basis set group =>   4
Atom  29H    basis set group =>   4
---------------------------------
AUXILIARY/J BASIS SET INFORMATION
---------------------------------
There are 4 groups of distinct atoms

 Group   1 Type O   : 12s5p4d2f1g contracted to 6s4p3d1f1g pattern {711111/2111/211/2/1}
 Group   2 Type N   : 12s5p4d2f1g contracted to 6s4p3d1f1g pattern {711111/2111/211/2/1}
 Group   3 Type C   : 12s5p4d2f1g contracted to 6s4p3d1f1g pattern {711111/2111/211/2/1}
 Group   4 Type H   : 5s2p1d contracted to 3s1p1d pattern {311/2/1}

Atom   0O    basis set group =>   1
Atom   1O    basis set group =>   1
Atom   2O    basis set group =>   1
Atom   3O    basis set group =>   1
Atom   4N    basis set group =>   2
Atom   5N    basis set group =>   2
Atom   6N    basis set group =>   2
Atom   7N    basis set group =>   2
Atom   8C    basis set group =>   3
Atom   9C    basis set group =>   3
Atom  10C    basis set group =>   3
Atom  11C    basis set group =>   3
Atom  12C    basis set group =>   3
Atom  13C    basis set group =>   3
Atom  14C    basis set group =>   3
Atom  15C    basis set group =>   3
Atom  16C    basis set group =>   3
Atom  17C    basis set group =>   3
Atom  18H    basis set group =>   4
Atom  19H    basis set group =>   4
Atom  20H    basis set group =>   4
Atom  21H    basis set group =>   4
Atom  22H    basis set group =>   4
Atom  23H    basis set group =>   4
Atom  24H    basis set group =>   4
Atom  25H    basis set group =>   4
Atom  26H    basis set group =>   4
Atom  27H    basis set group =>   4
Atom  28H    basis set group =>   4
Atom  29H    basis set group =>   4
[1741257677.676799] [ohm:401262:0]        ib_iface.c:1059 UCX  ERROR ibv_create_cq(cqe=256) failed: Connection timed out
[1741257677.706172] [ohm:401260:0]        ib_iface.c:1059 UCX  ERROR ibv_create_cq(cqe=256) failed: Connection timed out
[1741257677.711801] [ohm:401265:0]        ib_iface.c:1059 UCX  ERROR ibv_create_cq(cqe=256) failed: Connection timed out
[1741257677.717816] [ohm:401263:0]        ib_iface.c:1059 UCX  ERROR ibv_create_cq(cqe=256) failed: Connection timed out
[1741257677.734200] [ohm:401310:0]        ib_iface.c:1059 UCX  ERROR ibv_create_cq(cqe=256) failed: Connection timed out
[1741257677.735333] [ohm:401302:0]        ib_iface.c:1059 UCX  ERROR ibv_create_cq(cqe=256) failed: Connection timed out
[1741257677.736212] [ohm:401261:0]        ib_iface.c:1059 UCX  ERROR ibv_create_cq(cqe=256) failed: Connection timed out
[1741257677.754970] [ohm:401275:0]        ib_iface.c:1059 UCX  ERROR ibv_create_cq(cqe=256) failed: Connection timed out
[1741257677.759332] [ohm:401326:0]        ib_iface.c:1059 UCX  ERROR ibv_create_cq(cqe=256) failed: Connection timed out
[1741257677.760311] [ohm:401266:0]        ib_iface.c:1059 UCX  ERROR ibv_create_cq(cqe=256) failed: Connection timed out
[1741257677.761647] [ohm:401343:0]        ib_iface.c:1059 UCX  ERROR ibv_create_cq(cqe=256) failed: Connection timed out
[1741257677.768027] [ohm:401288:0]        ib_iface.c:1059 UCX  ERROR ibv_create_cq(cqe=256) failed: Connection timed out
[1741257677.771351] [ohm:401329:0]        ib_iface.c:1059 UCX  ERROR ibv_create_cq(cqe=256) failed: Connection timed out
[1741257677.773398] [ohm:401308:0]        ib_iface.c:1059 UCX  ERROR ibv_create_cq(cqe=256) failed: Connection timed out
[1741257677.776376] [ohm:401273:0]        ib_iface.c:1059 UCX  ERROR ibv_create_cq(cqe=256) failed: Connection timed out
[1741257677.776438] [ohm:401284:0]        ib_iface.c:1059 UCX  ERROR ibv_create_cq(cqe=256) failed: Connection timed out
[1741257677.810084] [ohm:401341:0]        ib_iface.c:1059 UCX  ERROR ibv_create_cq(cqe=256) failed: Connection timed out
[1741257677.862326] [ohm:401382:0]        ib_iface.c:1059 UCX  ERROR ibv_create_cq(cqe=256) failed: Connection timed out
[1741257677.875664] [ohm:401405:0]        ib_iface.c:1059 UCX  ERROR ibv_create_cq(cqe=256) failed: Connection timed out
[1741257677.880624] [ohm:401318:0]        ib_iface.c:1059 UCX  ERROR ibv_create_cq(cqe=256) failed: Connection timed out
[1741257677.884264] [ohm:401279:0]        ib_iface.c:1059 UCX  ERROR ibv_create_cq(cqe=256) failed: Connection timed out
[1741257677.888005] [ohm:401300:0]        ib_iface.c:1059 UCX  ERROR ibv_create_cq(cqe=256) failed: Connection timed out
[1741257677.895845] [ohm:401365:0]        ib_iface.c:1059 UCX  ERROR ibv_create_cq(cqe=256) failed: Connection timed out
[1741257677.898330] [ohm:401347:0]        ib_iface.c:1059 UCX  ERROR ibv_create_cq(cqe=256) failed: Connection timed out
[1741257677.917348] [ohm:401356:0]        ib_iface.c:1059 UCX  ERROR ibv_create_cq(cqe=256) failed: Connection timed out
[1741257677.922276] [ohm:401291:0]        ib_iface.c:1059 UCX  ERROR ibv_create_cq(cqe=256) failed: Connection timed out
[1741257677.923393] [ohm:401417:0]        ib_iface.c:1059 UCX  ERROR ibv_create_cq(cqe=256) failed: Connection timed out
[1741257677.927043] [ohm:401277:0]        ib_iface.c:1059 UCX  ERROR ibv_create_cq(cqe=256) failed: Connection timed out
[1741257677.928156] [ohm:401272:0]        ib_iface.c:1059 UCX  ERROR ibv_create_cq(cqe=256) failed: Connection timed out
[1741257677.933620] [ohm:401374:0]        ib_iface.c:1059 UCX  ERROR ibv_create_cq(cqe=256) failed: Connection timed out
[1741257677.943612] [ohm:401282:0]        ib_iface.c:1059 UCX  ERROR ibv_create_cq(cqe=256) failed: Connection timed out
[1741257677.945474] [ohm:401292:0]        ib_iface.c:1059 UCX  ERROR ibv_create_cq(cqe=256) failed: Connection timed out
[1741257677.957939] [ohm:401337:0]        ib_iface.c:1059 UCX  ERROR ibv_create_cq(cqe=256) failed: Connection timed out
[1741257677.959501] [ohm:401312:0]        ib_iface.c:1059 UCX  ERROR ibv_create_cq(cqe=256) failed: Connection timed out
[1741257677.964616] [ohm:401392:0]        ib_iface.c:1059 UCX  ERROR ibv_create_cq(cqe=256) failed: Connection timed out
[1741257677.964982] [ohm:401387:0]        ib_iface.c:1059 UCX  ERROR ibv_create_cq(cqe=256) failed: Connection timed out
[1741257677.966602] [ohm:401360:0]        ib_iface.c:1059 UCX  ERROR ibv_create_cq(cqe=256) failed: Connection timed out
[1741257677.971250] [ohm:401314:0]        ib_iface.c:1059 UCX  ERROR ibv_create_cq(cqe=256) failed: Connection timed out
[1741257677.974305] [ohm:401268:0]        ib_iface.c:1059 UCX  ERROR ibv_create_cq(cqe=256) failed: Connection timed out
[1741257677.977418] [ohm:401411:0]        ib_iface.c:1059 UCX  ERROR ibv_create_cq(cqe=256) failed: Connection timed out
[1741257677.982100] [ohm:401280:0]        ib_iface.c:1059 UCX  ERROR ibv_create_cq(cqe=256) failed: Connection timed out
[1741257677.986088] [ohm:401285:0]        ib_iface.c:1059 UCX  ERROR ibv_create_cq(cqe=256) failed: Connection timed out
[1741257677.993013] [ohm:401267:0]        ib_iface.c:1059 UCX  ERROR ibv_create_cq(cqe=256) failed: Connection timed out
[1741257677.999194] [ohm:401278:0]        ib_iface.c:1059 UCX  ERROR ibv_create_cq(cqe=256) failed: Connection timed out
[1741257678.008888] [ohm:401283:0]        ib_iface.c:1059 UCX  ERROR ibv_create_cq(cqe=256) failed: Connection timed out
[1741257678.012117] [ohm:401281:0]        ib_iface.c:1059 UCX  ERROR ibv_create_cq(cqe=256) failed: Connection timed out
[1741257678.012249] [ohm:401259:0]        ib_iface.c:1059 UCX  ERROR ibv_create_cq(cqe=256) failed: Connection timed out
[1741257678.013953] [ohm:401354:0]        ib_iface.c:1059 UCX  ERROR ibv_create_cq(cqe=256) failed: Connection timed out
[1741257678.013989] [ohm:401271:0]        ib_iface.c:1059 UCX  ERROR ibv_create_cq(cqe=256) failed: Connection timed out
[1741257678.015128] [ohm:401276:0]        ib_iface.c:1059 UCX  ERROR ibv_create_cq(cqe=256) failed: Connection timed out
[1741257678.018333] [ohm:401375:0]        ib_iface.c:1059 UCX  ERROR ibv_create_cq(cqe=256) failed: Connection timed out
[1741257678.023973] [ohm:401274:0]        ib_iface.c:1059 UCX  ERROR ibv_create_cq(cqe=256) failed: Connection timed out
[1741257678.025387] [ohm:401304:0]        ib_iface.c:1059 UCX  ERROR ibv_create_cq(cqe=256) failed: Connection timed out
[1741257678.027931] [ohm:401368:0]        ib_iface.c:1059 UCX  ERROR ibv_create_cq(cqe=256) failed: Connection timed out
[1741257678.028397] [ohm:401264:0]        ib_iface.c:1059 UCX  ERROR ibv_create_cq(cqe=256) failed: Connection timed out
[1741257678.029690] [ohm:401269:0]        ib_iface.c:1059 UCX  ERROR ibv_create_cq(cqe=256) failed: Connection timed out
[1741257678.030943] [ohm:401362:0]        ib_iface.c:1059 UCX  ERROR ibv_create_cq(cqe=256) failed: Connection timed out
[1741257678.031008] [ohm:401398:0]        ib_iface.c:1059 UCX  ERROR ibv_create_cq(cqe=256) failed: Connection timed out
[1741257678.031194] [ohm:401349:0]        ib_iface.c:1059 UCX  ERROR ibv_create_cq(cqe=256) failed: Connection timed out
[1741257678.031469] [ohm:401270:0]        ib_iface.c:1059 UCX  ERROR ibv_create_cq(cqe=256) failed: Connection timed out
[1741257678.032263] [ohm:401333:0]        ib_iface.c:1059 UCX  ERROR ibv_create_cq(cqe=256) failed: Connection timed out
[1741257678.032462] [ohm:401321:0]        ib_iface.c:1059 UCX  ERROR ibv_create_cq(cqe=256) failed: Connection timed out
[1741257678.033869] [ohm:401390:0]        ib_iface.c:1059 UCX  ERROR ibv_create_cq(cqe=256) failed: Connection timed out
[1741257678.033915] [ohm:401380:0]        ib_iface.c:1059 UCX  ERROR ibv_create_cq(cqe=256) failed: Connection timed out


           ************************************************************
           *        Program running with 64 parallel MPI-processes    *
           *              working on a common directory               *
           ************************************************************
------------------------------------------------------------------------------
                             ORCA STARTUP CALCULATIONS
                           -- RI-GTO INTEGRALS CHOSEN --
------------------------------------------------------------------------------
------------------------------------------------------------------------------
                   ___                                                        
                  /   \      - P O W E R E D   B Y -                         
                 /     \                                                     
                 |  |  |   _    _      __       _____    __    __             
                 |  |  |  | |  | |    /  \     |  _  \  |  |  /  |          
                  \  \/   | |  | |   /    \    | | | |  |  | /  /          
                 / \  \   | |__| |  /  /\  \   | |_| |  |  |/  /          
                |  |  |   |  __  | /  /__\  \  |    /   |      \           
                |  |  |   | |  | | |   __   |  |    \   |  |\   \          
                \     /   | |  | | |  |  |  |  | |\  \  |  | \   \       
                 \___/    |_|  |_| |__|  |__|  |_| \__\ |__|  \__/        
                                                                              
                      - O R C A' S   B I G   F R I E N D -                    
                                      &                                       
                       - I N T E G R A L  F E E D E R -                       
                                                                              
 v1 FN, 2020, v2 2021, v3 2022-2024                                           
------------------------------------------------------------------------------


----------------------
SHARK INTEGRAL PACKAGE
----------------------

Number of atoms                             ...     30
Number of basis functions                   ...    882
Number of shells                            ...    322
Maximum angular momentum                    ...      3
Integral batch strategy                     ... SHARK/LIBINT Hybrid
RI-J (if used) integral strategy            ... SPLIT-RIJ (Revised 2003 algorithm where possible)
Printlevel                                  ...      1
Contraction scheme used                     ... SEGMENTED contraction
Prescreening option                         ... SCHWARTZ
   Thresh                                   ... 2.500e-11
   Tcut                                     ... 2.500e-12
   Tpresel                                  ... 2.500e-12 
Coulomb Range Separation                    ... NOT USED
Exchange Range Separation                   ... Long Range
   Mu parameter                             ... 3.000e-01
   Scaling (regular/separated)              ... 1.500e-01 8.500e-01
Multipole approximations                    ... NOT USED
Finite Nucleus Model                        ... NOT USED
CABS basis                                  ... NOT available
Auxiliary Coulomb fitting basis             ... AVAILABLE
   # of basis functions in Aux-J            ...   1014
   # of shells in Aux-J                     ...    330
   Maximum angular momentum in Aux-J        ...      4
Auxiliary J/K fitting basis                 ... NOT available
Auxiliary Correlation fitting basis         ... NOT available
Auxiliary 'external' fitting basis          ... NOT available

Checking pre-screening integrals            ... done (  0.0 sec) Dimension = 322
Check shell pair data                       ... done (  0.0 sec)
Shell pair information
Shell pair cut-off parameter TPreSel        ...   2.5e-12
Total number of shell pairs                 ...     52003
Shell pairs after pre-screening             ...     44632
Total number of primitive shell pairs       ...    129718
Primitive shell pairs kept                  ...     83183
          la=0 lb=0:   8646 shell pairs
          la=1 lb=0:  11820 shell pairs
          la=1 lb=1:   4096 shell pairs
          la=2 lb=0:   8029 shell pairs
          la=2 lb=1:   5563 shell pairs
          la=2 lb=2:   1911 shell pairs
          la=3 lb=0:   2014 shell pairs
          la=3 lb=1:   1441 shell pairs
          la=3 lb=2:    980 shell pairs
          la=3 lb=3:    132 shell pairs

Calculating one electron integrals          ... done (  0.2 sec)
Calculating RI/J V-Matrix + Cholesky decomp.... done (  0.1 sec)
Calculating Nuclear repulsion               ... done (  0.0 sec) ENN=   1418.158323561974 Eh

Diagonalization of the overlap matrix:
Smallest eigenvalue                        ... 5.973e-07
Time for diagonalization                   ...    0.127 sec
Threshold for overlap eigenvalues          ... 1.000e-07
Number of eigenvalues below threshold      ... 0

IMPORTANT:
Smallest eigenvalue of S below the DiffSThresh (1.000e-06) while
Thresh>1e-12 and/or TCut>1e-13! In order to avoid SCF convergence issues,
Thresh will be set to at least 1e-12 and TCut to at least 1e-13.
This can be turned off by adding %SCF DiffSThresh -1 END to the input.

Time for construction of square roots      ...    0.130 sec
Total time needed                          ...    0.272 sec

-------------------
DFT GRID GENERATION
-------------------

General Integration Accuracy     IntAcc      ... 4.388
Radial Grid Type                 RadialGrid  ... OptM3 with GC (2021)
Angular Grid (max. ang.)         AngularGrid ... 4 (Lebedev-302)
Angular grid pruning method      GridPruning ... 4 (adaptive)
Weight generation scheme         WeightScheme... mBecke (2022)
Basis function cutoff            BFCut       ... 1.0000e-11
Integration weight cutoff        WCut        ... 1.0000e-14
Partially contracted basis set               ... off
Rotationally invariant grid construction     ... off
Angular grids for H and He will be reduced by one unit
Diffuse basis detected: some atoms will have their outermost
                        angular grid increased by 1.

Total number of grid points                  ...   152155
Total number of batches                      ...     2394
Average number of points per batch           ...       63
Average number of grid points per atom       ...     5072

--------------------
COSX GRID GENERATION
--------------------

GRIDX 1
-------
General Integration Accuracy     IntAcc      ... 3.816
Radial Grid Type                 RadialGrid  ... OptM3 with GC (2021)
Angular Grid (max. ang.)         AngularGrid ... 1 (Lebedev-50)
Angular grid pruning method      GridPruning ... 4 (adaptive)
Weight generation scheme         WeightScheme... mBecke (2022)
Basis function cutoff            BFCut       ... 1.0000e-11
Integration weight cutoff        WCut        ... 1.0000e-14
Partially contracted basis set               ... on
Rotationally invariant grid construction     ... off
Angular grids for H and He will be reduced by one unit
Diffuse basis detected: some atoms will have their outermost
                        angular grid increased by 1.

Total number of grid points                  ...    19029
Total number of batches                      ...      165
Average number of points per batch           ...      115
Average number of grid points per atom       ...      634
UseSFitting                                  ... on

GRIDX 2
-------
General Integration Accuracy     IntAcc      ... 4.020
Radial Grid Type                 RadialGrid  ... OptM3 with GC (2021)
Angular Grid (max. ang.)         AngularGrid ... 2 (Lebedev-110)
Angular grid pruning method      GridPruning ... 4 (adaptive)
Weight generation scheme         WeightScheme... mBecke (2022)
Basis function cutoff            BFCut       ... 1.0000e-11
Integration weight cutoff        WCut        ... 1.0000e-14
Partially contracted basis set               ... on
Rotationally invariant grid construction     ... off
Angular grids for H and He will be reduced by one unit
Diffuse basis detected: some atoms will have their outermost
                        angular grid increased by 1.

Total number of grid points                  ...    46005
Total number of batches                      ...      373
Average number of points per batch           ...      123
Average number of grid points per atom       ...     1534
UseSFitting                                  ... on

GRIDX 3
-------
General Integration Accuracy     IntAcc      ... 4.338
Radial Grid Type                 RadialGrid  ... OptM3 with GC (2021)
Angular Grid (max. ang.)         AngularGrid ... 3 (Lebedev-194)
Angular grid pruning method      GridPruning ... 4 (adaptive)
Weight generation scheme         WeightScheme... mBecke (2022)
Basis function cutoff            BFCut       ... 1.0000e-11
Integration weight cutoff        WCut        ... 1.0000e-14
Partially contracted basis set               ... on
Rotationally invariant grid construction     ... off
Angular grids for H and He will be reduced by one unit
Diffuse basis detected: some atoms will have their outermost
                        angular grid increased by 1.

Total number of grid points                  ...   101241
Total number of batches                      ...      805
Average number of points per batch           ...      125
Average number of grid points per atom       ...     3375
UseSFitting                                  ... on
Initializing property integral containers    ... done (  0.0 sec)

SHARK setup successfully completed in   4.0 seconds

Maximum memory used throughout the entire STARTUP-calculation: 79.5 MB
[1741257683.838188] [ohm:401601:0]        ib_iface.c:1059 UCX  ERROR ibv_create_cq(cqe=256) failed: Connection timed out
[1741257683.852285] [ohm:401597:0]        ib_iface.c:1059 UCX  ERROR ibv_create_cq(cqe=256) failed: Connection timed out
[1741257683.857555] [ohm:401595:0]        ib_iface.c:1059 UCX  ERROR ibv_create_cq(cqe=256) failed: Connection timed out
[1741257683.859398] [ohm:401596:0]        ib_iface.c:1059 UCX  ERROR ibv_create_cq(cqe=256) failed: Connection timed out
[1741257683.871347] [ohm:401594:0]        ib_iface.c:1059 UCX  ERROR ibv_create_cq(cqe=256) failed: Connection timed out
[1741257683.891004] [ohm:401618:0]        ib_iface.c:1059 UCX  ERROR ibv_create_cq(cqe=256) failed: Connection timed out
[1741257683.898179] [ohm:401617:0]        ib_iface.c:1059 UCX  ERROR ibv_create_cq(cqe=256) failed: Connection timed out
[1741257683.903036] [ohm:401600:0]        ib_iface.c:1059 UCX  ERROR ibv_create_cq(cqe=256) failed: Connection timed out
[1741257683.907134] [ohm:401619:0]        ib_iface.c:1059 UCX  ERROR ibv_create_cq(cqe=256) failed: Connection timed out
[1741257683.917713] [ohm:401610:0]        ib_iface.c:1059 UCX  ERROR ibv_create_cq(cqe=256) failed: Connection timed out
[1741257683.950789] [ohm:401604:0]        ib_iface.c:1059 UCX  ERROR ibv_create_cq(cqe=256) failed: Connection timed out
[1741257683.957620] [ohm:401723:0]        ib_iface.c:1059 UCX  ERROR ibv_create_cq(cqe=256) failed: Connection timed out
[1741257683.959987] [ohm:401655:0]        ib_iface.c:1059 UCX  ERROR ibv_create_cq(cqe=256) failed: Connection timed out
[1741257683.966640] [ohm:401686:0]        ib_iface.c:1059 UCX  ERROR ibv_create_cq(cqe=256) failed: Connection timed out
[1741257683.974485] [ohm:401685:0]        ib_iface.c:1059 UCX  ERROR ibv_create_cq(cqe=256) failed: Connection timed out
[1741257683.989686] [ohm:401616:0]        ib_iface.c:1059 UCX  ERROR ibv_create_cq(cqe=256) failed: Connection timed out
[1741257684.003984] [ohm:401611:0]        ib_iface.c:1059 UCX  ERROR ibv_create_cq(cqe=256) failed: Connection timed out
[1741257684.014075] [ohm:401607:0]        ib_iface.c:1059 UCX  ERROR ibv_create_cq(cqe=256) failed: Connection timed out
[1741257684.019626] [ohm:401614:0]        ib_iface.c:1059 UCX  ERROR ibv_create_cq(cqe=256) failed: Connection timed out
[1741257684.031211] [ohm:401726:0]        ib_iface.c:1059 UCX  ERROR ibv_create_cq(cqe=256) failed: Connection timed out
[1741257684.032270] [ohm:401642:0]        ib_iface.c:1059 UCX  ERROR ibv_create_cq(cqe=256) failed: Connection timed out
[1741257684.035935] [ohm:401612:0]        ib_iface.c:1059 UCX  ERROR ibv_create_cq(cqe=256) failed: Connection timed out
[1741257684.037522] [ohm:401645:0]        ib_iface.c:1059 UCX  ERROR ibv_create_cq(cqe=256) failed: Connection timed out
[1741257684.038512] [ohm:401615:0]        ib_iface.c:1059 UCX  ERROR ibv_create_cq(cqe=256) failed: Connection timed out
[1741257684.040201] [ohm:401651:0]        ib_iface.c:1059 UCX  ERROR ibv_create_cq(cqe=256) failed: Connection timed out
[1741257684.050953] [ohm:401603:0]        ib_iface.c:1059 UCX  ERROR ibv_create_cq(cqe=256) failed: Connection timed out
[1741257684.072447] [ohm:401622:0]        ib_iface.c:1059 UCX  ERROR ibv_create_cq(cqe=256) failed: Connection timed out
[1741257684.072798] [ohm:401605:0]        ib_iface.c:1059 UCX  ERROR ibv_create_cq(cqe=256) failed: Connection timed out
[1741257684.081132] [ohm:401663:0]        ib_iface.c:1059 UCX  ERROR ibv_create_cq(cqe=256) failed: Connection timed out
[1741257684.092036] [ohm:401641:0]        ib_iface.c:1059 UCX  ERROR ibv_create_cq(cqe=256) failed: Connection timed out
[1741257684.116726] [ohm:401721:0]        ib_iface.c:1059 UCX  ERROR ibv_create_cq(cqe=256) failed: Connection timed out
[1741257684.118153] [ohm:401666:0]        ib_iface.c:1059 UCX  ERROR ibv_create_cq(cqe=256) failed: Connection timed out
[1741257684.119957] [ohm:401698:0]        ib_iface.c:1059 UCX  ERROR ibv_create_cq(cqe=256) failed: Connection timed out
[1741257684.120941] [ohm:401599:0]        ib_iface.c:1059 UCX  ERROR ibv_create_cq(cqe=256) failed: Connection timed out
[1741257684.123784] [ohm:401609:0]        ib_iface.c:1059 UCX  ERROR ibv_create_cq(cqe=256) failed: Connection timed out
[1741257684.125181] [ohm:401730:0]        ib_iface.c:1059 UCX  ERROR ibv_create_cq(cqe=256) failed: Connection timed out
[1741257684.130255] [ohm:401694:0]        ib_iface.c:1059 UCX  ERROR ibv_create_cq(cqe=256) failed: Connection timed out
[1741257684.133058] [ohm:401728:0]        ib_iface.c:1059 UCX  ERROR ibv_create_cq(cqe=256) failed: Connection timed out
[1741257684.134063] [ohm:401675:0]        ib_iface.c:1059 UCX  ERROR ibv_create_cq(cqe=256) failed: Connection timed out
[1741257684.134177] [ohm:401700:0]        ib_iface.c:1059 UCX  ERROR ibv_create_cq(cqe=256) failed: Connection timed out
[1741257684.136623] [ohm:401659:0]        ib_iface.c:1059 UCX  ERROR ibv_create_cq(cqe=256) failed: Connection timed out
[1741257684.138615] [ohm:401648:0]        ib_iface.c:1059 UCX  ERROR ibv_create_cq(cqe=256) failed: Connection timed out
[1741257684.141684] [ohm:401626:0]        ib_iface.c:1059 UCX  ERROR ibv_create_cq(cqe=256) failed: Connection timed out
[1741257684.148736] [ohm:401602:0]        ib_iface.c:1059 UCX  ERROR ibv_create_cq(cqe=256) failed: Connection timed out
[1741257684.153646] [ohm:401624:0]        ib_iface.c:1059 UCX  ERROR ibv_create_cq(cqe=256) failed: Connection timed out
[1741257684.157116] [ohm:401621:0]        ib_iface.c:1059 UCX  ERROR ibv_create_cq(cqe=256) failed: Connection timed out
[1741257684.157443] [ohm:401711:0]        ib_iface.c:1059 UCX  ERROR ibv_create_cq(cqe=256) failed: Connection timed out
[1741257684.157568] [ohm:401613:0]        ib_iface.c:1059 UCX  ERROR ibv_create_cq(cqe=256) failed: Connection timed out
[1741257684.161852] [ohm:401718:0]        ib_iface.c:1059 UCX  ERROR ibv_create_cq(cqe=256) failed: Connection timed out
[1741257684.165865] [ohm:401681:0]        ib_iface.c:1059 UCX  ERROR ibv_create_cq(cqe=256) failed: Connection timed out
[1741257684.166113] [ohm:401608:0]        ib_iface.c:1059 UCX  ERROR ibv_create_cq(cqe=256) failed: Connection timed out
[1741257684.173201] [ohm:401708:0]        ib_iface.c:1059 UCX  ERROR ibv_create_cq(cqe=256) failed: Connection timed out
[1741257684.175249] [ohm:401606:0]        ib_iface.c:1059 UCX  ERROR ibv_create_cq(cqe=256) failed: Connection timed out
[1741257684.175952] [ohm:401706:0]        ib_iface.c:1059 UCX  ERROR ibv_create_cq(cqe=256) failed: Connection timed out
[1741257684.178107] [ohm:401734:0]        ib_iface.c:1059 UCX  ERROR ibv_create_cq(cqe=256) failed: Connection timed out
[1741257684.178107] [ohm:401634:0]        ib_iface.c:1059 UCX  ERROR ibv_create_cq(cqe=256) failed: Connection timed out
[1741257684.180540] [ohm:401688:0]        ib_iface.c:1059 UCX  ERROR ibv_create_cq(cqe=256) failed: Connection timed out
[1741257684.180771] [ohm:401692:0]        ib_iface.c:1059 UCX  ERROR ibv_create_cq(cqe=256) failed: Connection timed out
[1741257684.181182] [ohm:401690:0]        ib_iface.c:1059 UCX  ERROR ibv_create_cq(cqe=256) failed: Connection timed out
[1741257684.182100] [ohm:401598:0]        ib_iface.c:1059 UCX  ERROR ibv_create_cq(cqe=256) failed: Connection timed out
[1741257684.183175] [ohm:401716:0]        ib_iface.c:1059 UCX  ERROR ibv_create_cq(cqe=256) failed: Connection timed out
[1741257684.183269] [ohm:401620:0]        ib_iface.c:1059 UCX  ERROR ibv_create_cq(cqe=256) failed: Connection timed out
[1741257684.183395] [ohm:401671:0]        ib_iface.c:1059 UCX  ERROR ibv_create_cq(cqe=256) failed: Connection timed out
[1741257684.184047] [ohm:401631:0]        ib_iface.c:1059 UCX  ERROR ibv_create_cq(cqe=256) failed: Connection timed out


           ************************************************************
           *        Program running with 64 parallel MPI-processes    *
           *              working on a common directory               *
           ************************************************************
-------------------------------------------------------------------------------
                                 ORCA GUESS
                   Start orbitals & Density for SCF / CASSCF
-------------------------------------------------------------------------------

------------
SCF SETTINGS
------------
Hamiltonian:
 Density Functional     Method          .... DFT(GTOs)
  Functional kind                       .... Exchange-Correlation
  Functional name                       .... wB97M-V exchange-correlation functional
  Functional family                     .... Hybrid MGGA
  Functional refs                              
    [ 0] N. Mardirossian and M. Head-Gordon.,  J. Chem. Phys. 144, 214110 (2016), doi: 10.1063/1.4952647
  Fraction of HF Exchange (short range) .... 0.1500
  Fraction of HF Exchange (long range)  .... 1.0000
  Range separation parameter mu         .... 0.3000
  Functional external parameters        .... 17
    Parameter  0 _cx00      =  8.500000e-01 : u^00 coefficient for exchange
    Parameter  1 _cx01      =  1.007000e+00 : u^01 coefficient for exchange
    Parameter  2 _cx10      =  2.590000e-01 : u^10 coefficient for exchange
    Parameter  3 _css00     =  4.430000e-01 : u^00 coefficient for same-spin correlation
    Parameter  4 _css04     = -1.437000e+00 : u^04 coefficient for same-spin correlation
    Parameter  5 _css10     = -4.535000e+00 : u^10 coefficient for same-spin correlation
    Parameter  6 _css20     = -3.390000e+00 : u^20 coefficient for same-spin correlation
    Parameter  7 _css43     =  4.278000e+00 : u^43 coefficient for same-spin correlation
    Parameter  8 _cos00     =  1.000000e+00 : u^00 coefficient for opposite-spin correlation
    Parameter  9 _cos10     =  1.358000e+00 : u^10 coefficient for opposite-spin correlation
    Parameter 10 _cos20     =  2.924000e+00 : u^20 coefficient for opposite-spin correlation
    Parameter 11 _cos21     = -8.812000e+00 : u^21 coefficient for opposite-spin correlation
    Parameter 12 _cos60     = -1.390000e+00 : u^60 coefficient for opposite-spin correlation
    Parameter 13 _cos61     =  9.142000e+00 : u^61 coefficient for opposite-spin correlation
    Parameter 14 _alpha     =  1.000000e+00 : fraction of HF exchange
    Parameter 15 _beta      = -8.500000e-01 : fraction of short-range exchange
    Parameter 16 _omega     =  3.000000e-01 : range-separation constant
 Long-range corrected/Screened/Range-Separated Hybrid DFT is turned on
   Amount of maximum screened exact exchange              ....  0.850000
   Range separation parameter mu (erf(mu*r12)/r12)        ....  0.300000
 RI-approximation to the Coulomb term is turned on
   Number of AuxJ basis functions       .... 1014
   RIJ-COSX (HFX calculated with COS-X)).... on


General Settings:
 Integral files         IntName         .... orca
 Hartree-Fock type      HFTyp           .... UHF
 Total Charge           Charge          ....    0
 Multiplicity           Mult            ....    3
 Number of Electrons    NEL             ....  132
 Basis Dimension        Dim             ....  882
 Nuclear Repulsion      ENuc            ....   1418.1583235620 Eh

Convergence Acceleration:
 AO-DIIS                CNVDIIS         .... on
   Start iteration      DIISMaxIt       ....    12
   Startup error        DIISStart       ....  0.200000
   # of expansion vecs  DIISMaxEq       ....     5
   Bias factor          DIISBfac        ....   1.050
   Max. coefficient     DIISMaxC        ....  10.000
 MO-DIIS                CNVKDIIS        .... off
 Trust-Rad. Augm. Hess. CNVTRAH         .... auto
   Auto Start mean grad. ratio tolernc. ....  1.125000
   Auto Start start iteration           ....    50
   Auto Start num. interpolation iter.  ....    10
   Max. Number of Micro iterations      ....    24
   Max. Number of Macro iterations      .... Maxiter - #DIIS iter
   Number of Davidson start vectors     ....     2
   Converg. threshold    (grad. norm)   ....   1.000e-05
   Grad. Scal. Fac. for Micro threshold ....   0.100
   Minimum threshold for Micro iter.    ....   1.000e-02
   NR start threshold (gradient norm)   ....   1.000e-04
   Initial trust radius                 ....   0.400
   Minimum AH scaling param. (alpha)    ....   1.000
   Maximum AH scaling param. (alpha)    .... 1000.000
   Quad. conv. algorithm                .... NR
   White noise on init. David. guess    .... on
   Maximum white noise                  ....   0.010
   Pseudo random numbers                .... off
   Inactive MOs                         .... canonical
   Orbital update algorithm             .... Taylor
   Preconditioner                       .... Diag
   Full preconditioner red. dimension   ....   250
 SOSCF                  CNVSOSCF        .... on
   Start iteration      SOSCFMaxIt      ....   150
   Startup grad/error   SOSCFStart      ....  0.003300
   Hessian update       SOSCFHessUp     .... L-BFGS
 Level Shifting         CNVShift        .... on
   Level shift para.    LevelShift      ....    0.2500
   Turn off err/grad.   ShiftErr        ....    0.0010
 Zerner damping         CNVZerner       .... off
 Static damping         CNVDamp         .... on
   Fraction old density DampFac         ....    0.7000
   Max. Damping (<1)    DampMax         ....    0.9800
   Min. Damping (>=0)   DampMin         ....    0.0000
   Turn off err/grad.   DampErr         ....    0.1000

SCF Procedure:
 Maximum # iterations   MaxIter         ....   125
 SCF integral mode      SCFMode         .... Direct
   Integral package                     .... SHARK and LIBINT hybrid scheme
 Reset frequency        DirectResetFreq ....    20
 Integral Threshold     Thresh          ....  1.000e-12 Eh
 Primitive CutOff       TCut            ....  1.000e-13 Eh

Convergence Tolerance:
 Convergence Check Mode ConvCheckMode   .... Total+1el-Energy
 Convergence forced     ConvForced      .... 1
 Energy Change          TolE            ....  1.000e-08 Eh
 1-El. energy change                    ....  1.000e-05 Eh
 Orbital Gradient       TolG            ....  1.000e-05
 Orbital Rotation angle TolX            ....  1.000e-05
 DIIS Error             TolErr          ....  5.000e-07

------------------------------
INITIAL GUESS: MODEL POTENTIAL
------------------------------
Loading Hartree-Fock densities                     ... done
Calculating cut-offs                               ... done
Initializing the effective Hamiltonian             ... done
Setting up the integral package (SHARK)            ... done
Starting the Coulomb interaction                   ... done (   0.1 sec)
Making the grid                                    ... done (   0.2 sec)
Mapping shells                                     ... done
Starting the XC term evaluation                    ... done (   0.1 sec)
  promolecular density results
     # of electrons  =    131.993828336
     EX              =   -113.542026139
     EC              =     -4.488332695
     EX+EC           =   -118.030358835
Transforming the Hamiltonian                       ... done (   0.1 sec)
Diagonalizing the Hamiltonian                      ... done (   0.1 sec)
Back transforming the eigenvectors                 ... done (   0.1 sec)
Now organizing SCF variables                       ... done
                      ------------------
                      INITIAL GUESS DONE (   1.1 sec)
                      ------------------
             **** ENERGY FILE WAS UPDATED (orca.en.tmp) ****
Finished Guess after   3.4 sec
Maximum memory used throughout the entire GUESS-calculation: 71.8 MB
[1741257688.036294] [ohm:401925:0]        ib_iface.c:1059 UCX  ERROR ibv_create_cq(cqe=256) failed: Connection timed out
[1741257688.042786] [ohm:401928:0]        ib_iface.c:1059 UCX  ERROR ibv_create_cq(cqe=256) failed: Connection timed out
[1741257688.047580] [ohm:401923:0]        ib_iface.c:1059 UCX  ERROR ibv_create_cq(cqe=256) failed: Connection timed out
[1741257688.069246] [ohm:401932:0]        ib_iface.c:1059 UCX  ERROR ibv_create_cq(cqe=256) failed: Connection timed out
[1741257688.072504] [ohm:401926:0]        ib_iface.c:1059 UCX  ERROR ibv_create_cq(cqe=256) failed: Connection timed out
[1741257688.074379] [ohm:401927:0]        ib_iface.c:1059 UCX  ERROR ibv_create_cq(cqe=256) failed: Connection timed out
[1741257688.075396] [ohm:401929:0]        ib_iface.c:1059 UCX  ERROR ibv_create_cq(cqe=256) failed: Connection timed out
[1741257688.075764] [ohm:401930:0]        ib_iface.c:1059 UCX  ERROR ibv_create_cq(cqe=256) failed: Connection timed out
[1741257688.088201] [ohm:401939:0]        ib_iface.c:1059 UCX  ERROR ibv_create_cq(cqe=256) failed: Connection timed out
[1741257688.089405] [ohm:401933:0]        ib_iface.c:1059 UCX  ERROR ibv_create_cq(cqe=256) failed: Connection timed out
[1741257688.092764] [ohm:401936:0]        ib_iface.c:1059 UCX  ERROR ibv_create_cq(cqe=256) failed: Connection timed out
[1741257688.092926] [ohm:401937:0]        ib_iface.c:1059 UCX  ERROR ibv_create_cq(cqe=256) failed: Connection timed out
[1741257688.126229] [ohm:402026:0]        ib_iface.c:1059 UCX  ERROR ibv_create_cq(cqe=256) failed: Connection timed out
[1741257688.126236] [ohm:401924:0]        ib_iface.c:1059 UCX  ERROR ibv_create_cq(cqe=256) failed: Connection timed out
[1741257688.133142] [ohm:401946:0]        ib_iface.c:1059 UCX  ERROR ibv_create_cq(cqe=256) failed: Connection timed out
[1741257688.154040] [ohm:401945:0]        ib_iface.c:1059 UCX  ERROR ibv_create_cq(cqe=256) failed: Connection timed out
[1741257688.157289] [ohm:402021:0]        ib_iface.c:1059 UCX  ERROR ibv_create_cq(cqe=256) failed: Connection timed out
[1741257688.163959] [ohm:401935:0]        ib_iface.c:1059 UCX  ERROR ibv_create_cq(cqe=256) failed: Connection timed out
[1741257688.168427] [ohm:401931:0]        ib_iface.c:1059 UCX  ERROR ibv_create_cq(cqe=256) failed: Connection timed out
[1741257688.181581] [ohm:402031:0]        ib_iface.c:1059 UCX  ERROR ibv_create_cq(cqe=256) failed: Connection timed out
[1741257688.184950] [ohm:401934:0]        ib_iface.c:1059 UCX  ERROR ibv_create_cq(cqe=256) failed: Connection timed out
[1741257688.205731] [ohm:402016:0]        ib_iface.c:1059 UCX  ERROR ibv_create_cq(cqe=256) failed: Connection timed out
[1741257688.212059] [ohm:401954:0]        ib_iface.c:1059 UCX  ERROR ibv_create_cq(cqe=256) failed: Connection timed out
[1741257688.213551] [ohm:402010:0]        ib_iface.c:1059 UCX  ERROR ibv_create_cq(cqe=256) failed: Connection timed out
[1741257688.222100] [ohm:402068:0]        ib_iface.c:1059 UCX  ERROR ibv_create_cq(cqe=256) failed: Connection timed out
[1741257688.227404] [ohm:401940:0]        ib_iface.c:1059 UCX  ERROR ibv_create_cq(cqe=256) failed: Connection timed out
[1741257688.228132] [ohm:401988:0]        ib_iface.c:1059 UCX  ERROR ibv_create_cq(cqe=256) failed: Connection timed out
[1741257688.228805] [ohm:402027:0]        ib_iface.c:1059 UCX  ERROR ibv_create_cq(cqe=256) failed: Connection timed out
[1741257688.232058] [ohm:401944:0]        ib_iface.c:1059 UCX  ERROR ibv_create_cq(cqe=256) failed: Connection timed out
[1741257688.235524] [ohm:401938:0]        ib_iface.c:1059 UCX  ERROR ibv_create_cq(cqe=256) failed: Connection timed out
[1741257688.235959] [ohm:401976:0]        ib_iface.c:1059 UCX  ERROR ibv_create_cq(cqe=256) failed: Connection timed out
[1741257688.238216] [ohm:401941:0]        ib_iface.c:1059 UCX  ERROR ibv_create_cq(cqe=256) failed: Connection timed out
[1741257688.245704] [ohm:402007:0]        ib_iface.c:1059 UCX  ERROR ibv_create_cq(cqe=256) failed: Connection timed out
[1741257688.254891] [ohm:401964:0]        ib_iface.c:1059 UCX  ERROR ibv_create_cq(cqe=256) failed: Connection timed out
[1741257688.254956] [ohm:402034:0]        ib_iface.c:1059 UCX  ERROR ibv_create_cq(cqe=256) failed: Connection timed out
[1741257688.264947] [ohm:402052:0]        ib_iface.c:1059 UCX  ERROR ibv_create_cq(cqe=256) failed: Connection timed out
[1741257688.266726] [ohm:401971:0]        ib_iface.c:1059 UCX  ERROR ibv_create_cq(cqe=256) failed: Connection timed out
[1741257688.267882] [ohm:401947:0]        ib_iface.c:1059 UCX  ERROR ibv_create_cq(cqe=256) failed: Connection timed out
[1741257688.268695] [ohm:402060:0]        ib_iface.c:1059 UCX  ERROR ibv_create_cq(cqe=256) failed: Connection timed out
[1741257688.271983] [ohm:401959:0]        ib_iface.c:1059 UCX  ERROR ibv_create_cq(cqe=256) failed: Connection timed out
[1741257688.272608] [ohm:401999:0]        ib_iface.c:1059 UCX  ERROR ibv_create_cq(cqe=256) failed: Connection timed out
[1741257688.291178] [ohm:402018:0]        ib_iface.c:1059 UCX  ERROR ibv_create_cq(cqe=256) failed: Connection timed out
[1741257688.292706] [ohm:401943:0]        ib_iface.c:1059 UCX  ERROR ibv_create_cq(cqe=256) failed: Connection timed out
[1741257688.294755] [ohm:401982:0]        ib_iface.c:1059 UCX  ERROR ibv_create_cq(cqe=256) failed: Connection timed out
[1741257688.298954] [ohm:401974:0]        ib_iface.c:1059 UCX  ERROR ibv_create_cq(cqe=256) failed: Connection timed out
[1741257688.300832] [ohm:401951:0]        ib_iface.c:1059 UCX  ERROR ibv_create_cq(cqe=256) failed: Connection timed out
[1741257688.301247] [ohm:401967:0]        ib_iface.c:1059 UCX  ERROR ibv_create_cq(cqe=256) failed: Connection timed out
[1741257688.307141] [ohm:401942:0]        ib_iface.c:1059 UCX  ERROR ibv_create_cq(cqe=256) failed: Connection timed out
[1741257688.311799] [ohm:401991:0]        ib_iface.c:1059 UCX  ERROR ibv_create_cq(cqe=256) failed: Connection timed out
[1741257688.313651] [ohm:402067:0]        ib_iface.c:1059 UCX  ERROR ibv_create_cq(cqe=256) failed: Connection timed out
[1741257688.326282] [ohm:401948:0]        ib_iface.c:1059 UCX  ERROR ibv_create_cq(cqe=256) failed: Connection timed out
[1741257688.326538] [ohm:401994:0]        ib_iface.c:1059 UCX  ERROR ibv_create_cq(cqe=256) failed: Connection timed out
[1741257688.330605] [ohm:401961:0]        ib_iface.c:1059 UCX  ERROR ibv_create_cq(cqe=256) failed: Connection timed out
[1741257688.334985] [ohm:402041:0]        ib_iface.c:1059 UCX  ERROR ibv_create_cq(cqe=256) failed: Connection timed out
[1741257688.335576] [ohm:401983:0]        ib_iface.c:1059 UCX  ERROR ibv_create_cq(cqe=256) failed: Connection timed out
[1741257688.338488] [ohm:402048:0]        ib_iface.c:1059 UCX  ERROR ibv_create_cq(cqe=256) failed: Connection timed out
[1741257688.339969] [ohm:401969:0]        ib_iface.c:1059 UCX  ERROR ibv_create_cq(cqe=256) failed: Connection timed out
[1741257688.340022] [ohm:402055:0]        ib_iface.c:1059 UCX  ERROR ibv_create_cq(cqe=256) failed: Connection timed out
[1741257688.340450] [ohm:402043:0]        ib_iface.c:1059 UCX  ERROR ibv_create_cq(cqe=256) failed: Connection timed out
[1741257688.340948] [ohm:401978:0]        ib_iface.c:1059 UCX  ERROR ibv_create_cq(cqe=256) failed: Connection timed out
[1741257688.341607] [ohm:402002:0]        ib_iface.c:1059 UCX  ERROR ibv_create_cq(cqe=256) failed: Connection timed out
[1741257688.342877] [ohm:402012:0]        ib_iface.c:1059 UCX  ERROR ibv_create_cq(cqe=256) failed: Connection timed out
[1741257688.342826] [ohm:402036:0]        ib_iface.c:1059 UCX  ERROR ibv_create_cq(cqe=256) failed: Connection timed out
[1741257688.343221] [ohm:402072:0]        ib_iface.c:1059 UCX  ERROR ibv_create_cq(cqe=256) failed: Connection timed out


           ************************************************************
           *        Program running with 64 parallel MPI-processes    *
           *              working on a common directory               *
           ************************************************************

-------------------------------------------------------------------------------------------
                                      ORCA LEAN-SCF
                              memory conserving SCF solver
-------------------------------------------------------------------------------------------

----------------------------------------D-I-I-S--------------------------------------------
Iteration    Energy (Eh)           Delta-E    RMSDP     MaxDP     DIISErr   Damp  Time(sec)
-------------------------------------------------------------------------------------------
               ***  Starting incremental Fock matrix formation  ***
    1    -908.1277168047881787     0.00e+00  1.72e-03  3.02e-01  1.48e-01  0.700   7.6
    2    -908.3959474487551233    -2.68e-01  1.35e-03  2.04e-01  7.07e-02  0.700   6.4
                               ***Turning on AO-DIIS***
    3    -908.5140558779439743    -1.18e-01  9.43e-04  1.31e-01  2.85e-02  0.700   5.6
    4    -908.5866191004406573    -7.26e-02  2.23e-03  2.88e-01  1.87e-02  0.000   5.6
    5    -908.7496743637134387    -1.63e-01  2.59e-04  5.38e-02  4.83e-03  0.000   5.7
                              *** Initializing SOSCF ***
---------------------------------------S-O-S-C-F--------------------------------------
Iteration    Energy (Eh)           Delta-E    RMSDP     MaxDP     MaxGrad    Time(sec)
--------------------------------------------------------------------------------------
    6    -908.7509632947176215    -1.29e-03  1.19e-04  3.26e-02  2.35e-03     6.4
               *** Restarting incremental Fock matrix formation ***
    7    -908.7515454106833204    -5.82e-04  2.34e-04  2.53e-02  4.62e-03     7.3
    8    -908.7519133899836561    -3.68e-04  2.32e-04  5.21e-02  2.37e-03     6.5
    9    -908.7520319476498116    -1.19e-04  1.34e-04  1.44e-02  9.31e-04     6.5
   10    -908.7521045161543043    -7.26e-05  2.34e-05  6.20e-03  3.73e-04     6.3
   11    -908.7521113796715326    -6.86e-06  8.70e-06  2.01e-03  1.53e-04     6.0
   12    -908.7521130821673978    -1.70e-06  6.12e-06  1.29e-03  1.01e-04     5.8
   13    -908.7521139530817891    -8.71e-07  3.68e-06  3.73e-04  3.23e-05     5.8
   14    -908.7521140745780031    -1.21e-07  1.71e-06  3.65e-04  2.27e-05     5.7
   15    -908.7521141316578905    -5.71e-08  1.44e-06  3.23e-04  1.07e-05     5.5
   16    -908.7521141742263353    -4.26e-08  9.67e-07  1.30e-04  3.45e-06     5.4
   17    -908.7521142277282706    -5.35e-08  1.29e-06  2.12e-04  2.19e-06     5.2
                  *** Gradient check signals convergence ***

               *****************************************************
               *                     SUCCESS                       *
               *           SCF CONVERGED AFTER  17 CYCLES          *
               *****************************************************

Recomputing exchange energy using gridx3       ... done (    7.644 sec)
Old exchange energy                            :    -35.035886010 Eh
New exchange energy                            :    -35.035889944 Eh
Exchange energy change after final integration :     -0.000003934 Eh
Total energy after final integration           :   -908.752118162 Eh
             **** ENERGY FILE WAS UPDATED (orca.en.tmp) ****

----------------
TOTAL SCF ENERGY
----------------

Total Energy       :       -908.75211816218780 Eh          -24728.40230 eV

Components:
Nuclear Repulsion  :       1418.15832356197416 Eh           38590.04986 eV
Electronic Energy  :      -2326.91043778970288 Eh          -63318.45206 eV
One Electron Energy:      -4053.29945997303139 Eh         -110295.88564 eV
Two Electron Energy:       1726.38902218332873 Eh           46977.43358 eV

Virial components:
Potential Energy   :      -1814.43036791010627 Eh          -49373.16039 eV
Kinetic Energy     :        905.67824974791858 Eh           24644.75809 eV
Virial Ratio       :          2.00339399606331

DFT components:
N(Alpha)           :       66.999946372428 electrons
N(Beta)            :       64.999922601315 electrons
N(Total)           :      131.999868973743 electrons
E(XC)              :      -86.251121659716 Eh       

---------------
SCF CONVERGENCE
---------------

  Last Energy change         ...    5.3502e-08  Tolerance :   1.0000e-08
  Last MAX-Density change    ...    2.1228e-04  Tolerance :   1.0000e-07
  Last RMS-Density change    ...    1.2914e-06  Tolerance :   5.0000e-09
  Last DIIS Error            ...    2.3459e-03  Tolerance :   5.0000e-07
  Last Orbital Gradient      ...    2.1855e-06  Tolerance :   1.0000e-05
  Last Orbital Rotation      ...    1.2203e-05  Tolerance :   1.0000e-05


----------------------
UHF SPIN CONTAMINATION
----------------------

Warning: in a DFT calculation there is little theoretical justification to 
         calculate <S**2> as in Hartree-Fock theory. We will do it anyways
         but you should keep in mind that the values have only limited relevance

Expectation value of <S**2>     :     2.012471
Ideal value S*(S+1) for S=1.0   :     2.000000
Deviation                       :     0.012471

----------------
ORBITAL ENERGIES
----------------
                 SPIN UP ORBITALS
  NO   OCC          E(Eh)            E(eV) 
   0   1.0000     -19.342440      -526.3345 
   1   1.0000     -19.334779      -526.1261 
   2   1.0000     -19.319031      -525.6976 
   3   1.0000     -19.317420      -525.6537 
   4   1.0000     -14.565206      -396.3394 
   5   1.0000     -14.564213      -396.3124 
   6   1.0000     -14.558945      -396.1690 
   7   1.0000     -14.558346      -396.1527 
   8   1.0000     -10.506826      -285.9053 
   9   1.0000     -10.502984      -285.8007 
  10   1.0000     -10.495306      -285.5918 
  11   1.0000     -10.479794      -285.1697 
  12   1.0000     -10.451437      -284.3980 
  13   1.0000     -10.447179      -284.2822 
  14   1.0000     -10.433392      -283.9070 
  15   1.0000     -10.414116      -283.3825 
  16   1.0000     -10.382772      -282.5296 
  17   1.0000     -10.368464      -282.1402 
  18   1.0000      -1.222393       -33.2630 
  19   1.0000      -1.214678       -33.0531 
  20   1.0000      -1.202787       -32.7295 
  21   1.0000      -1.191098       -32.4114 
  22   1.0000      -1.120533       -30.4913 
  23   1.0000      -1.097821       -29.8732 
  24   1.0000      -1.064457       -28.9654 
  25   1.0000      -1.051292       -28.6071 
  26   1.0000      -0.982973       -26.7480 
  27   1.0000      -0.957297       -26.0494 
  28   1.0000      -0.889449       -24.2031 
  29   1.0000      -0.849642       -23.1199 
  30   1.0000      -0.826851       -22.4998 
  31   1.0000      -0.805172       -21.9098 
  32   1.0000      -0.785711       -21.3803 
  33   1.0000      -0.777102       -21.1460 
  34   1.0000      -0.704390       -19.1674 
  35   1.0000      -0.701184       -19.0802 
  36   1.0000      -0.691600       -18.8194 
  37   1.0000      -0.682554       -18.5732 
  38   1.0000      -0.651765       -17.7354 
  39   1.0000      -0.635914       -17.3041 
  40   1.0000      -0.625946       -17.0328 
  41   1.0000      -0.601974       -16.3805 
  42   1.0000      -0.595918       -16.2158 
  43   1.0000      -0.587156       -15.9773 
  44   1.0000      -0.575730       -15.6664 
  45   1.0000      -0.571607       -15.5542 
  46   1.0000      -0.568937       -15.4815 
  47   1.0000      -0.561716       -15.2851 
  48   1.0000      -0.560868       -15.2620 
  49   1.0000      -0.554409       -15.0862 
  50   1.0000      -0.553903       -15.0725 
  51   1.0000      -0.543276       -14.7833 
  52   1.0000      -0.532893       -14.5007 
  53   1.0000      -0.523364       -14.2415 
  54   1.0000      -0.510842       -13.9007 
  55   1.0000      -0.506381       -13.7793 
  56   1.0000      -0.502235       -13.6665 
  57   1.0000      -0.422590       -11.4993 
  58   1.0000      -0.418968       -11.4007 
  59   1.0000      -0.409570       -11.1450 
  60   1.0000      -0.404049       -10.9947 
  61   1.0000      -0.399598       -10.8736 
  62   1.0000      -0.393537       -10.7087 
  63   1.0000      -0.390391       -10.6231 
  64   1.0000      -0.387678       -10.5492 
  65   1.0000      -0.354961        -9.6590 
  66   1.0000      -0.317227        -8.6322 
  67   0.0000       0.004988         0.1357 
  68   0.0000       0.028618         0.7787 
  69   0.0000       0.031178         0.8484 
  70   0.0000       0.035103         0.9552 
  71   0.0000       0.053795         1.4638 
  72   0.0000       0.056953         1.5498 
  73   0.0000       0.060907         1.6574 
  74   0.0000       0.061980         1.6866 
  75   0.0000       0.064108         1.7445 
  76   0.0000       0.067012         1.8235 
  77   0.0000       0.071511         1.9459 

                 SPIN DOWN ORBITALS
  NO   OCC          E(Eh)            E(eV) 
   0   1.0000     -19.338713      -526.2331 
   1   1.0000     -19.330860      -526.0194 
   2   1.0000     -19.318970      -525.6959 
   3   1.0000     -19.317277      -525.6498 
   4   1.0000     -14.564997      -396.3337 
   5   1.0000     -14.563590      -396.2954 
   6   1.0000     -14.558308      -396.1517 
   7   1.0000     -14.558295      -396.1513 
   8   1.0000     -10.506857      -285.9061 
   9   1.0000     -10.503018      -285.8017 
  10   1.0000     -10.496366      -285.6206 
  11   1.0000     -10.480713      -285.1947 
  12   1.0000     -10.450789      -284.3804 
  13   1.0000     -10.446488      -284.2634 
  14   1.0000     -10.421904      -283.5944 
  15   1.0000     -10.402942      -283.0784 
  16   1.0000     -10.383429      -282.5475 
  17   1.0000     -10.368979      -282.1543 
  18   1.0000      -1.219428       -33.1823 
  19   1.0000      -1.213713       -33.0268 
  20   1.0000      -1.199393       -32.6372 
  21   1.0000      -1.186021       -32.2733 
  22   1.0000      -1.118151       -30.4264 
  23   1.0000      -1.095999       -29.8237 
  24   1.0000      -1.062747       -28.9188 
  25   1.0000      -1.049809       -28.5668 
  26   1.0000      -0.969456       -26.3802 
  27   1.0000      -0.940074       -25.5807 
  28   1.0000      -0.883891       -24.0519 
  29   1.0000      -0.844278       -22.9740 
  30   1.0000      -0.818078       -22.2610 
  31   1.0000      -0.799592       -21.7580 
  32   1.0000      -0.784232       -21.3400 
  33   1.0000      -0.775534       -21.1033 
  34   1.0000      -0.699030       -19.0216 
  35   1.0000      -0.694723       -18.9044 
  36   1.0000      -0.686970       -18.6934 
  37   1.0000      -0.676153       -18.3991 
  38   1.0000      -0.642074       -17.4717 
  39   1.0000      -0.628209       -17.0944 
  40   1.0000      -0.620241       -16.8776 
  41   1.0000      -0.597906       -16.2699 
  42   1.0000      -0.590790       -16.0762 
  43   1.0000      -0.580760       -15.8033 
  44   1.0000      -0.570026       -15.5112 
  45   1.0000      -0.567095       -15.4314 
  46   1.0000      -0.560821       -15.2607 
  47   1.0000      -0.554202       -15.0806 
  48   1.0000      -0.551355       -15.0031 
  49   1.0000      -0.548147       -14.9158 
  50   1.0000      -0.540998       -14.7213 
  51   1.0000      -0.537980       -14.6392 
  52   1.0000      -0.526081       -14.3154 
  53   1.0000      -0.514580       -14.0024 
  54   1.0000      -0.505307       -13.7501 
  55   1.0000      -0.501565       -13.6483 
  56   1.0000      -0.492254       -13.3949 
  57   1.0000      -0.418324       -11.3832 
  58   1.0000      -0.414462       -11.2781 
  59   1.0000      -0.401187       -10.9169 
  60   1.0000      -0.393428       -10.7057 
  61   1.0000      -0.391057       -10.6412 
  62   1.0000      -0.388391       -10.5687 
  63   1.0000      -0.386377       -10.5139 
  64   1.0000      -0.378275       -10.2934 
  65   0.0000      -0.072573        -1.9748 
  66   0.0000      -0.045628        -1.2416 
  67   0.0000       0.004600         0.1252 
  68   0.0000       0.028177         0.7667 
  69   0.0000       0.030733         0.8363 
  70   0.0000       0.034879         0.9491 
  71   0.0000       0.053757         1.4628 
  72   0.0000       0.057324         1.5599 
  73   0.0000       0.060559         1.6479 
  74   0.0000       0.062851         1.7103 
  75   0.0000       0.064048         1.7428 
*Only the first 10 virtual orbitals were printed.

                    ********************************
                    * MULLIKEN POPULATION ANALYSIS *
                    ********************************

--------------------------------------------
MULLIKEN ATOMIC CHARGES AND SPIN POPULATIONS
--------------------------------------------
   0 O :   -0.644208    0.140056
   1 O :   -0.630392    0.146032
   2 O :   -0.660852    0.002009
   3 O :   -0.662878    0.005280
   4 N :   -0.209589    0.026262
   5 N :   -0.244950    0.013825
   6 N :    0.110712    0.035073
   7 N :   -0.059685    0.025421
   8 C :    0.075287    0.467217
   9 C :    0.049508    0.411927
  10 C :    0.327275    0.176770
  11 C :    0.494211    0.189642
  12 C :   -1.342386    0.004206
  13 C :   -1.583109    0.023305
  14 C :    0.383797    0.095854
  15 C :    0.554729    0.103088
  16 C :    0.452791   -0.010265
  17 C :    0.444696   -0.002836
  18 H :    0.544114    0.007966
  19 H :    0.598340    0.034187
  20 H :    0.326506    0.025471
  21 H :    0.227226    0.028844
  22 H :    0.328053   -0.002226
  23 H :    0.396120    0.020682
  24 H :    0.328851    0.003101
  25 H :    0.253537    0.033949
  26 H :    0.008619    0.001034
  27 H :    0.060396   -0.001587
  28 H :    0.009693   -0.002148
  29 H :    0.063587   -0.002140
Sum of atomic charges         :   -0.0000000
Sum of atomic spin populations:    2.0000000

-----------------------------------------------------
MULLIKEN REDUCED ORBITAL CHARGES AND SPIN POPULATIONS
-----------------------------------------------------
CHARGE
  0 O s       :     4.088068  s :     4.088068
      pz      :     1.568391  p :     4.524487
      px      :     1.336680
      py      :     1.619417
      dz2     :     0.004890  d :     0.029819
      dxz     :     0.006896
      dyz     :     0.004944
      dx2y2   :     0.008087
      dxy     :     0.005002
      f0      :     0.000161  f :     0.001834
      f+1     :     0.000427
      f-1     :     0.000068
      f+2     :     0.000359
      f-2     :     0.000314
      f+3     :     0.000272
      f-3     :     0.000235

  1 O s       :     4.077963  s :     4.077963
      pz      :     1.282046  p :     4.516906
[...]
[1741257968.358221] [ohm:403393:0]        ib_iface.c:1059 UCX  ERROR ibv_create_cq(cqe=256) failed: Connection timed out
[1741257968.359981] [ohm:403415:0]        ib_iface.c:1059 UCX  ERROR ibv_create_cq(cqe=256) failed: Connection timed out
[1741257968.362403] [ohm:403424:0]        ib_iface.c:1059 UCX  ERROR ibv_create_cq(cqe=256) failed: Connection timed out
[1741257968.366853] [ohm:403285:0]        ib_iface.c:1059 UCX  ERROR ibv_create_cq(cqe=256) failed: Connection timed out
[1741257968.369572] [ohm:403289:0]        ib_iface.c:1059 UCX  ERROR ibv_create_cq(cqe=256) failed: Connection timed out
[1741257968.370520] [ohm:403402:0]        ib_iface.c:1059 UCX  ERROR ibv_create_cq(cqe=256) failed: Connection timed out
[1741257968.370698] [ohm:403315:0]        ib_iface.c:1059 UCX  ERROR ibv_create_cq(cqe=256) failed: Connection timed out
[1741257968.372734] [ohm:403298:0]        ib_iface.c:1059 UCX  ERROR ibv_create_cq(cqe=256) failed: Connection timed out
[1741257968.375333] [ohm:403307:0]        ib_iface.c:1059 UCX  ERROR ibv_create_cq(cqe=256) failed: Connection timed out
[1741257968.375501] [ohm:403300:0]        ib_iface.c:1059 UCX  ERROR ibv_create_cq(cqe=256) failed: Connection timed out
[1741257968.375651] [ohm:403374:0]        ib_iface.c:1059 UCX  ERROR ibv_create_cq(cqe=256) failed: Connection timed out


           ************************************************************
           *        Program running with 64 parallel MPI-processes    *
           *              working on a common directory               *
           ************************************************************

------------------------------------------------------------------------------
                              ORCA PROPERTY CALCULATIONS
------------------------------------------------------------------------------

GBWName                                 ... orca.gbw
Number of atoms                         ...     30
Number of basis functions               ...    882
Max core memory                         ...   1024 MB

Electric properties:
Dipole moment                           ... YES
Quadrupole moment                       ...  NO
Static polarizability (Dipole/Dipole)   ...  NO
Static polarizability (Dipole/Quad.)    ...  NO
Static polarizability (Quad./Quad.)     ...  NO
Static polarizability (Velocity)        ...  NO

Atomic electric properties:
Dipole moment                           ...  NO
Quadrupole moment                       ...  NO
Static polarizability                   ...  NO

Choice of electric origin               ... Center of mass
Position of electric origin             ...    -0.014312    -0.082289    -0.044046

General magnetic properties:
Magnetizability                         ...  NO

EPR properties:
g-Tensor (aka g-matrix)                 ...  NO
Zero-Field splitting spin-orbit         ...  NO
Zero-field splitting spin-spin          ...  NO
Hyperfine couplings                     ...  NO (   0 nuclei)
Quadrupole couplings                    ...  NO (   0 nuclei)
Contact density                         ...  NO (   0 nuclei)

NMR properties:
Chemical shifts                         ...  NO (   0 nuclei)
Spin-rotation constants                 ...  NO (   0 nuclei)
Spin-spin couplings                     ...  NO (   0 nuclei,    0 pairs)

Choice of magnetic origin               ... GIAO
Position of magnetic origin             ...     0.000000     0.000000     0.000000

Properties with geometric perturbations:
SCF Hessian                             ...  NO
IR spectrum                             ...  NO
VCD spectrum                            ...  NO
X-ray spectroscopy properties:
SCF XES/XAS/RIXS spectra                ...  NO


-------------
DIPOLE MOMENT
-------------

Method             : SCF
Type of density    : Electron Density
Multiplicity       :   3
Irrep              :   0
Energy             :  -908.7521181621877986 Eh
Relativity type    : 
Basis              : AO
                                X                 Y                 Z
Electronic contribution:     -7.521241372      -7.773135796      -3.387667759
Nuclear contribution   :      8.574813480       9.452916023       5.291491300
                        -----------------------------------------
Total Dipole Moment    :      1.053572107       1.679780227       1.903823540
                        -----------------------------------------
Magnitude (a.u.)       :      2.748857921
Magnitude (Debye)      :      6.987041566



--------------------
Rotational spectrum 
--------------------
 
Rotational constants in cm-1:             0.021736             0.011497             0.011063 
Rotational constants in MHz :           651.627460           344.670717           331.664207 

Dipole components along the rotational axes: 
x,y,z [a.u.] :    -0.595558     1.916217     1.878734 
x,y,z [Debye]:    -1.513788     4.870637     4.775363 

 

-------------
DIPOLE MOMENT
-------------

Method             : TDA/CIS
Type of density    : Electron Density
Level              : Relaxed density
State              :   2
Multiplicity       :   3
Irrep              :   0
Energy             :     0.0000000000000000 Eh
Relativity type    : 
Basis              : AO
                                X                 Y                 Z
Electronic contribution:     -7.520170265      -7.735753420      -3.304161689
Nuclear contribution   :      8.574813480       9.452916023       5.291491300
                        -----------------------------------------
Total Dipole Moment    :      1.054643215       1.717162603       1.987329611
                        -----------------------------------------
Magnitude (a.u.)       :      2.830264775
Magnitude (Debye)      :      7.193961345



--------------------
Rotational spectrum 
--------------------
 
Rotational constants in cm-1:             0.021736             0.011497             0.011063 
Rotational constants in MHz :           651.627460           344.670717           331.664207 

Dipole components along the rotational axes: 
x,y,z [a.u.] :    -0.580367     1.959810     1.957733 
x,y,z [Debye]:    -1.475176     4.981441     4.976161 

 

Dipole moment calculation done in   0.2 sec 

Maximum memory used throughout the entire PROP-calculation: 81.1 MB
[1741257970.808697] [ohm:403625:0]        ib_iface.c:1059 UCX  ERROR ibv_create_cq(cqe=256) failed: Connection timed out
[1741257970.832114] [ohm:403618:0]        ib_iface.c:1059 UCX  ERROR ibv_create_cq(cqe=256) failed: Connection timed out
[1741257970.833762] [ohm:403626:0]        ib_iface.c:1059 UCX  ERROR ibv_create_cq(cqe=256) failed: Connection timed out
[1741257970.842069] [ohm:403622:0]        ib_iface.c:1059 UCX  ERROR ibv_create_cq(cqe=256) failed: Connection timed out
[1741257970.849373] [ohm:403623:0]        ib_iface.c:1059 UCX  ERROR ibv_create_cq(cqe=256) failed: Connection timed out
[1741257970.849447] [ohm:403617:0]        ib_iface.c:1059 UCX  ERROR ibv_create_cq(cqe=256) failed: Connection timed out
[1741257970.854465] [ohm:403619:0]        ib_iface.c:1059 UCX  ERROR ibv_create_cq(cqe=256) failed: Connection timed out
[1741257970.856853] [ohm:403645:0]        ib_iface.c:1059 UCX  ERROR ibv_create_cq(cqe=256) failed: Connection timed out
[1741257970.858363] [ohm:403620:0]        ib_iface.c:1059 UCX  ERROR ibv_create_cq(cqe=256) failed: Connection timed out
[1741257970.867412] [ohm:403624:0]        ib_iface.c:1059 UCX  ERROR ibv_create_cq(cqe=256) failed: Connection timed out
[1741257970.871870] [ohm:403621:0]        ib_iface.c:1059 UCX  ERROR ibv_create_cq(cqe=256) failed: Connection timed out
[1741257970.884859] [ohm:403630:0]        ib_iface.c:1059 UCX  ERROR ibv_create_cq(cqe=256) failed: Connection timed out
[1741257970.891025] [ohm:403656:0]        ib_iface.c:1059 UCX  ERROR ibv_create_cq(cqe=256) failed: Connection timed out
[1741257970.911620] [ohm:403643:0]        ib_iface.c:1059 UCX  ERROR ibv_create_cq(cqe=256) failed: Connection timed out
[1741257970.916565] [ohm:403733:0]        ib_iface.c:1059 UCX  ERROR ibv_create_cq(cqe=256) failed: Connection timed out
[1741257970.919064] [ohm:403686:0]        ib_iface.c:1059 UCX  ERROR ibv_create_cq(cqe=256) failed: Connection timed out
[1741257970.927613] [ohm:403746:0]        ib_iface.c:1059 UCX  ERROR ibv_create_cq(cqe=256) failed: Connection timed out
[1741257970.930030] [ohm:403684:0]        ib_iface.c:1059 UCX  ERROR ibv_create_cq(cqe=256) failed: Connection timed out
[1741257970.939594] [ohm:403753:0]        ib_iface.c:1059 UCX  ERROR ibv_create_cq(cqe=256) failed: Connection timed out
[1741257970.947560] [ohm:403687:0]        ib_iface.c:1059 UCX  ERROR ibv_create_cq(cqe=256) failed: Connection timed out
[1741257970.949049] [ohm:403701:0]        ib_iface.c:1059 UCX  ERROR ibv_create_cq(cqe=256) failed: Connection timed out
[1741257970.966288] [ohm:403689:0]        ib_iface.c:1059 UCX  ERROR ibv_create_cq(cqe=256) failed: Connection timed out
[1741257970.977615] [ohm:403751:0]        ib_iface.c:1059 UCX  ERROR ibv_create_cq(cqe=256) failed: Connection timed out
[1741257970.977727] [ohm:403704:0]        ib_iface.c:1059 UCX  ERROR ibv_create_cq(cqe=256) failed: Connection timed out
[1741257970.982157] [ohm:403627:0]        ib_iface.c:1059 UCX  ERROR ibv_create_cq(cqe=256) failed: Connection timed out
[1741257970.990393] [ohm:403716:0]        ib_iface.c:1059 UCX  ERROR ibv_create_cq(cqe=256) failed: Connection timed out
[1741257971.001621] [ohm:403698:0]        ib_iface.c:1059 UCX  ERROR ibv_create_cq(cqe=256) failed: Connection timed out
[1741257971.004529] [ohm:403691:0]        ib_iface.c:1059 UCX  ERROR ibv_create_cq(cqe=256) failed: Connection timed out
[1741257971.006520] [ohm:403721:0]        ib_iface.c:1059 UCX  ERROR ibv_create_cq(cqe=256) failed: Connection timed out
[1741257971.007992] [ohm:403722:0]        ib_iface.c:1059 UCX  ERROR ibv_create_cq(cqe=256) failed: Connection timed out
[1741257971.017066] [ohm:403758:0]        ib_iface.c:1059 UCX  ERROR ibv_create_cq(cqe=256) failed: Connection timed out
[1741257971.020959] [ohm:403726:0]        ib_iface.c:1059 UCX  ERROR ibv_create_cq(cqe=256) failed: Connection timed out
[1741257971.030672] [ohm:403660:0]        ib_iface.c:1059 UCX  ERROR ibv_create_cq(cqe=256) failed: Connection timed out
[1741257971.041212] [ohm:403679:0]        ib_iface.c:1059 UCX  ERROR ibv_create_cq(cqe=256) failed: Connection timed out
[1741257971.041503] [ohm:403732:0]        ib_iface.c:1059 UCX  ERROR ibv_create_cq(cqe=256) failed: Connection timed out
[1741257971.043615] [ohm:403629:0]        ib_iface.c:1059 UCX  ERROR ibv_create_cq(cqe=256) failed: Connection timed out
[1741257971.044713] [ohm:403628:0]        ib_iface.c:1059 UCX  ERROR ibv_create_cq(cqe=256) failed: Connection timed out
[1741257971.048504] [ohm:403764:0]        ib_iface.c:1059 UCX  ERROR ibv_create_cq(cqe=256) failed: Connection timed out
[1741257971.055208] [ohm:403729:0]        ib_iface.c:1059 UCX  ERROR ibv_create_cq(cqe=256) failed: Connection timed out
[1741257971.058258] [ohm:403671:0]        ib_iface.c:1059 UCX  ERROR ibv_create_cq(cqe=256) failed: Connection timed out
[1741257971.083130] [ohm:403759:0]        ib_iface.c:1059 UCX  ERROR ibv_create_cq(cqe=256) failed: Connection timed out
[1741257971.083546] [ohm:403739:0]        ib_iface.c:1059 UCX  ERROR ibv_create_cq(cqe=256) failed: Connection timed out
[1741257971.087361] [ohm:403631:0]        ib_iface.c:1059 UCX  ERROR ibv_create_cq(cqe=256) failed: Connection timed out
[1741257971.088291] [ohm:403709:0]        ib_iface.c:1059 UCX  ERROR ibv_create_cq(cqe=256) failed: Connection timed out
[1741257971.092125] [ohm:403740:0]        ib_iface.c:1059 UCX  ERROR ibv_create_cq(cqe=256) failed: Connection timed out
[1741257971.093411] [ohm:403685:0]        ib_iface.c:1059 UCX  ERROR ibv_create_cq(cqe=256) failed: Connection timed out
[1741257971.095173] [ohm:403632:0]        ib_iface.c:1059 UCX  ERROR ibv_create_cq(cqe=256) failed: Connection timed out
[1741257971.097664] [ohm:403696:0]        ib_iface.c:1059 UCX  ERROR ibv_create_cq(cqe=256) failed: Connection timed out
[1741257971.097684] [ohm:403683:0]        ib_iface.c:1059 UCX  ERROR ibv_create_cq(cqe=256) failed: Connection timed out
[1741257971.099752] [ohm:403681:0]        ib_iface.c:1059 UCX  ERROR ibv_create_cq(cqe=256) failed: Connection timed out
[1741257971.099994] [ohm:403680:0]        ib_iface.c:1059 UCX  ERROR ibv_create_cq(cqe=256) failed: Connection timed out
[1741257971.100515] [ohm:403677:0]        ib_iface.c:1059 UCX  ERROR ibv_create_cq(cqe=256) failed: Connection timed out
[1741257971.105393] [ohm:403713:0]        ib_iface.c:1059 UCX  ERROR ibv_create_cq(cqe=256) failed: Connection timed out
[1741257971.109305] [ohm:403674:0]        ib_iface.c:1059 UCX  ERROR ibv_create_cq(cqe=256) failed: Connection timed out
[1741257971.110040] [ohm:403669:0]        ib_iface.c:1059 UCX  ERROR ibv_create_cq(cqe=256) failed: Connection timed out
[1741257971.110677] [ohm:403642:0]        ib_iface.c:1059 UCX  ERROR ibv_create_cq(cqe=256) failed: Connection timed out
[1741257971.115586] [ohm:403682:0]        ib_iface.c:1059 UCX  ERROR ibv_create_cq(cqe=256) failed: Connection timed out
[1741257971.120016] [ohm:403657:0]        ib_iface.c:1059 UCX  ERROR ibv_create_cq(cqe=256) failed: Connection timed out
[1741257971.121382] [ohm:403748:0]        ib_iface.c:1059 UCX  ERROR ibv_create_cq(cqe=256) failed: Connection timed out
[1741257971.121513] [ohm:403694:0]        ib_iface.c:1059 UCX  ERROR ibv_create_cq(cqe=256) failed: Connection timed out
[1741257971.122578] [ohm:403651:0]        ib_iface.c:1059 UCX  ERROR ibv_create_cq(cqe=256) failed: Connection timed out
[1741257971.122680] [ohm:403663:0]        ib_iface.c:1059 UCX  ERROR ibv_create_cq(cqe=256) failed: Connection timed out
[1741257971.123521] [ohm:403636:0]        ib_iface.c:1059 UCX  ERROR ibv_create_cq(cqe=256) failed: Connection timed out
[1741257971.124110] [ohm:403678:0]        ib_iface.c:1059 UCX  ERROR ibv_create_cq(cqe=256) failed: Connection timed out

--------------------------------
SUGGESTED CITATIONS FOR THIS RUN
--------------------------------

Below you find a list of papers that are relevant to this ORCA run
We neither can nor want to force you to cite these papers, but we appreciate if you do
You receive ORCA, which is the product of decades of hard work by many enthusiastic individuals, for free
The only thing we kindly ask in return is that you cite our papers,
We deeply appreciate it, if you show your appreciation for ORCA by not just citing the generic ORCA reference.

Please note that relegating all ORCA citations to the supporting information does *not* help us.
SI sections are not indexed - citations you put there will not count into any citation statistics
But we need these citations in order to attract the funding resources that allow us to do what we are doing

Therefore, if you are a happy ORCA user, please consider citing a few of the papers listed below in the main body of your paper

In addition to the list printed below, the program has created the file orca.bibtex that contains the list in bibtex format
You can import this file easily into all common literature databanks and citation aid programs


List of essential papers. We consider these as the minimum necessary citations

  1. Neese,F.
     Software update: the ORCA program system, version 5.0
     WIRES Comput. Molec. Sci., 2022 12(1)e1606
     doi.org/10.1002/wcms.1606

List of papers to cite with high priority. The work reported in these papers was absolutely
necessary for this run to complete.
Our perspective: the developers of density functionals and basis sets usually get cited in chemistry papers
Good! But without the algorithms to do something with them, the functionals or basis sets would not do anything.
Hence, in our opinion, the algorithm design and method developments papers are equally worthy of getting cited

  1. Neese,F.; Olbrich,G.
     Efficient use of the resolution of the identity approximation in time-dependent density functional calculations with hybrid density functionals
     Chem. Phys. Lett., 2002 362 170-178
     doi.org/10.1016/s0009-2614(02)01053-9
  2. Neese,F.
     An improvement of the resolution of the identity approximation for the formation of the Coulomb matrix
     J. Comp. Chem., 2003 24(14)1740-1747
     doi.org/10.1002/jcc.10318
  3. Neese,F.; Wennmohs,F.; Hansen,A.; Becker,U.
     Efficient, approximate and parallel Hartree-Fock and hybrid DFT calculations. A 'chain-of-spheres' algorithm for the Hartree-Fock exchange
     Chem. Phys., 2009 356(1-3)98-109
     doi.org/10.1016/j.chemphys.2008.10.036
  4. Petrenko,T.; Kossmann,S.; Neese,F.
     Efficient time-dependent density functional theory approximations for hybrid density functionals: Analytical gradients and parallelization
     J. Chem. Phys., 2011 134 054116
     doi.org/10.1063/1.3533441
  5. Helmich-Paris,B.; de Souza,B.; Neese,F.; Izsák,R.
     An improved chain of spheres for exchange algorithm
     J. Chem. Phys., 2021 155 104109
     doi.org/doi: 10.1063/5.0058766.
  6. Neese,F.
     The SHARK Integral Generation and Digestion System
     J. Comp. Chem., 2022  1-16
     doi.org/10.1002/jcc.26942
  7. Lehtola,S.; Steigemann,C.; Oliveira,M.; Marques,M.
     Recent developments in Libxc - A comprehensive library of functionals for density functional theory
     Software X, 2018 7 
     doi.org/10.1016/j.softx.2017.11.002
  8. Grimme,S.; Antony,J.; Ehrlich,S.; Krieg,H.
     A consistent and accurate ab initio parametrization of density functional dispersion correction (DFT-D) for the 94 elements H-Pu
     J. Chem. Phys., 2010 132 154104-XXXX
     doi.org/10.1063/1.3382344
  9. Grimme,S.; Ehrlich,S.; Goerigk,L.
     Effect of the damping function in dispersion corrected density functional theory
     J. Comput. Chem., 2011 32(7)1456-1465
     doi.org/10.1002/jcc.21759

List of suggested additional citations. These are papers that are important in the 'surrounding' of 
of this run, or papers that preceded the highly important papers. If you like your results we are grateful for a citation.

  1. Izsak,R.; Neese,F.
     An overlap fitted chain of spheres exchange method
     J. Chem. Phys., 2011 135 144105
     doi.org/10.1063/1.3646921
  2. Izsak,R.; Hansen,A.; Neese,F.
     The resolution of identity and chain of spheres approximations for the LPNO-CCSD singles Fock term
     Molec. Phys., 2012 110 2413-2417
     doi.org/10.1080/00268976.2012.687466
  3. Neese,F.
     The ORCA program system
     WIRES Comput. Molec. Sci., 2012 2(1)73-78
     doi.org/10.1002/wcms.81
  4. Izsak,R.; Neese,F.; Klopper,W.
     Robust fitting techniques in the chain of spheres approximation to the Fock exchange: The role of the complementary space
     J. Chem. Phys., 2013 139 
     doi.org/10.1063/1.4819264
  5. Neese,F.
     Software update: the ORCA program system, version 4.0
     WIRES Comput. Molec. Sci., 2018 8(1)1-6
     doi.org/10.1002/wcms.1327
  6. Neese,F.; Wennmohs,F.; Becker,U.; Riplinger,C.
     The ORCA quantum chemistry program package
     J. Chem. Phys., 2020 152 Art. No. L224108
     doi.org/10.1063/5.0004608

List of optional additional citations

  1. Neese,F.
     Approximate second-order SCF convergence for spin unrestricted wavefunctions
     Chem. Phys. Lett., 2000 325(1-3)93-98
     doi.org/10.1016/s0009-2614(00)00662-x

Timings for individual modules:

Sum of individual times          ...      293.245 sec (=   4.887 min)
Startup calculation              ...        6.371 sec (=   0.106 min)   2.2 %
SCF iterations                   ...      120.585 sec (=   2.010 min)  41.1 %
Property integrals               ...        4.159 sec (=   0.069 min)   1.4 %
Property calculations            ...        2.908 sec (=   0.048 min)   1.0 %
CIS module                       ...      159.222 sec (=   2.654 min)  54.3 %
                             ****ORCA TERMINATED NORMALLY****
TOTAL RUN TIME: 0 days 0 hours 4 minutes 55 seconds 303 msec
