30
Properties=species:S:1:pos:R:3:momenta:R:3:forces:R:3 Coordinates=T from=T ORCA-job=T orca=T E=T -908.766586193819=T energy=-24729.21934628524 free_energy=-24729.21934628524 stress="-5.9138176347325345e-09 -8.317415021707462e-07 -3.66864889888285e-07 -8.317415021707462e-07 -8.450262177938372e-07 2.797882007109351e-07 -3.66864889888285e-07 2.797882007109351e-07 3.1877693193684733e-07" pbc="F F F"
O        4.06130493       0.11764557       0.38035568      -0.03684263      -0.37727940      -0.32909587       0.22886073       0.30427875       0.08379913
O       -1.73502091       1.51559448      -2.35756629       0.26792777       0.11716600       0.22165977       0.10744743       0.33751805      -0.03625013
O        1.09494669      -3.00764397      -1.08136167      -0.23676025      -0.06768673       0.03755395       0.21947085      -0.40658855      -0.25950642
O       -3.63735440      -1.31509754       0.51336815      -0.61856290      -0.18698880      -0.21635166      -0.31156359      -0.43915220      -0.13696310
N        0.32386103      -1.27546679       0.11135940      -0.30041867       0.67060558       0.26639625       0.27279790       0.27155671       0.02430362
N       -2.00897742      -0.00680606       1.29751709      -0.56546767       0.15199509       0.08726093       0.80902884       0.37285648       0.50717340
N        2.61832785      -1.48273330      -0.27419534      -0.03100130       0.04139800      -0.11652053      -0.50623732       0.05572495       0.06471597
N       -2.43408996      -0.10221067      -0.98779311      -0.10687118       0.58558568      -0.05727467       0.21861255      -0.17369684       0.74923509
C        1.79851027       0.38231542       1.03617463       0.21186677       0.13119210      -0.05600543      -0.19260443       0.18850609       0.24574054
C       -0.87154207       1.54888823      -0.14751617       0.23558585       0.11842876       0.21307253      -0.86873505      -0.28498337       0.36295468
C        0.43854612      -0.25915337       1.11878349      -0.05687392       0.47454118       0.66575059       0.85254872      -0.13066429       0.71709795
C       -0.76732253       0.72696004       1.10060129       0.23390711      -0.18160323       0.03158621       0.11763341      -0.06928213      -0.73332169
C        2.12568079       1.64407605       1.74778033       0.41929937       0.27341243       0.45596082      -0.01543558       0.33343590      -0.08111211
C       -0.59052839       2.98155961      -0.15827719       0.30216463      -0.11261839      -0.82244549      -0.53248216       0.77323544      -0.14637270
C        2.91871292      -0.28235021       0.37275606       0.22729870       0.01970945       0.12212508      -0.61867524      -0.51115060      -0.10951375
C       -1.68381399       1.02791224      -1.24120131      -0.30430657      -0.98506960       0.31247296       0.44047656       0.09965551      -0.48018149
C        1.33274444      -2.01243383      -0.45508675       0.35583061      -0.59784921      -0.24957142       0.22463690       0.59062231       0.22866565
C       -2.74440811      -0.53689759       0.28967765      -0.60555206      -0.19288176      -0.31257735      -0.48885283      -0.23272223      -0.05977454
H        0.35979417      -0.71485536       2.14919926       0.18031315       0.15251236      -0.02261122       0.12036473       0.19266856      -0.54404203
H       -0.63072320       1.39374424       1.93246470       0.07853071       0.12522716       0.02016529       0.05743512       0.20091091       0.31136921
H        3.19697648       1.69711607       1.91046001       0.13710870       0.08315754       0.12596568       0.04413919      -0.12853833       0.26088774
H        1.93672745       2.50437431       1.10845981       0.17891996      -0.18347440       0.01839050      -0.10169404       0.02275618      -0.15176713
H        1.56399187       1.85375810       2.66682657      -0.00691011       0.05795997      -0.07277686       0.09961327      -0.38469084      -0.12862810
H       -1.20316791       3.53850040       0.60172586      -0.02904238       0.02166794      -0.10227309       0.07784920      -0.51454361      -0.36242967
H        0.40550498       3.26002530       0.11853558       0.02484683      -0.19742550      -0.08761999       0.56859547      -0.02949428      -0.08894100
H       -0.84458390       3.38722092      -1.14371092       0.12712489      -0.01033868      -0.05824096       0.20554227      -0.00661289       0.24005404
H       -0.55236850      -1.71753153       0.01183807      -0.01576758       0.08160804      -0.05706570      -0.58164454      -0.35467126      -0.05396600
H       -2.09430552      -0.47269481       2.19247969      -0.04833650      -0.03360338      -0.03435546      -0.24298207       0.03251812      -0.25260660
H        3.38613269      -1.92995075      -0.74468252       0.01425398      -0.07324716      -0.04731915      -0.04550315      -0.10481859      -0.04643176
H       -2.98754724      -0.47055982      -1.73614840      -0.03226531       0.09389896       0.06374430      -0.15864315      -0.00463396      -0.12418881
