
                                 *****************
                                 * O   R   C   A *
                                 *****************

                                            #,                                       
                                            ###                                      
                                            ####                                     
                                            #####                                    
                                            ######                                   
                                           ########,                                 
                                     ,,################,,,,,                         
                               ,,#################################,,                 
                          ,,##########################################,,             
                       ,#########################################, ''#####,          
                    ,#############################################,,   '####,        
                  ,##################################################,,,,####,       
                ,###########''''           ''''###############################       
              ,#####''   ,,,,##########,,,,          '''####'''          '####       
            ,##' ,,,,###########################,,,                        '##       
           ' ,,###''''                  '''############,,,                           
         ,,##''                                '''############,,,,        ,,,,,,###''
      ,#''                                            '''#######################'''  
     '                                                          ''''####''''         
             ,#######,   #######,   ,#######,      ##                                
            ,#'     '#,  ##    ##  ,#'     '#,    #''#        ,####,   ,####,        
            ##       ##  ##   ,#'  ##            #'  '#       #'       #'  '#        
            ##       ##  #######   ##           ,######,      #####,   #    #        
            '#,     ,#'  ##    ##  '#,     ,#' ,#      #,     #,   #   #,  ,#        
             '#######'   ##     ##  '#######'  #'      '#     '####' # '####'        



                #########################################################
                #                        -***-                          #
                #          Department of theory and spectroscopy        #
                #                                                       #
                #                      Frank Neese                      #
                #                                                       #
                #     Directorship, Architecture, Infrastructure        #
                #                    SHARK, DRIVERS                     #
                #        Core code/Algorithms in most modules           #
                #                                                       #
                #        Max Planck Institute fuer Kohlenforschung      #
                #                Kaiser Wilhelm Platz 1                 #
                #                 D-45470 Muelheim/Ruhr                 #
                #                      Germany                          #
                #                                                       #
                #                  All rights reserved                  #
                #                        -***-                          #
                #########################################################


                         Program Version 6.0.0  -   RELEASE  -


 With contributions from (in alphabetic order):
   Daniel Aravena         : Magnetic Suceptibility
   Michael Atanasov       : Ab Initio Ligand Field Theory (pilot matlab implementation)
   Alexander A. Auer      : GIAO ZORA, VPT2 properties, NMR spectrum
   Ute Becker             : All parallelization in ORCA, NUMFREQ, NUMCALC
   Giovanni Bistoni       : ED, misc. LED, open-shell LED, HFLD
   Martin Brehm           : Molecular dynamics
   Dmytro Bykov           : pre 5.0 version of the SCF Hessian
   Marcos Casanova-Páez   : Triplet and SCS-CIS(D). UHF-(DLPNO)-IP/EA/STEOM-CCSD. UHF-CVS-IP/STEOM-CCSD
   Vijay G. Chilkuri      : MRCI spin determinant printing, contributions to CSF-ICE
   Pauline Colinet        : FMM embedding
   Dipayan Datta          : RHF DLPNO-CCSD density
   Achintya Kumar Dutta   : EOM-CC, STEOM-CC
   Nicolas Foglia         : Exact transition moments, OPA infrastructure, MCD improvements
   Dmitry Ganyushin       : Spin-Orbit,Spin-Spin,Magnetic field MRCI
   Miquel Garcia          : C-PCM and meta-GGA Hessian, CCSD/C-PCM, Gaussian charge scheme
   Tiago L. C. Gouveia    : GS-ROHF, GS-ROCIS
   Yang Guo               : DLPNO-NEVPT2, F12-NEVPT2, CIM, IAO-localization
   Andreas Hansen         : Spin unrestricted coupled pair/coupled cluster methods
   Ingolf Harden          : AUTO-CI MPn and infrastructure 
   Benjamin Helmich-Paris : MC-RPA, TRAH-(SCF,CASSCF), AVAS, COSX integrals, SCF dyn. polar.
   Lee Huntington         : MR-EOM, pCC
   Robert Izsak           : Overlap fitted RIJCOSX, COSX-SCS-MP3, EOM
   Riya Kayal             : Wick's Theorem for AUTO-CI, AUTO-CI UHF-CCSDT
   Emily Kempfer          : AUTO-CI, RHF CISDT and CCSDT
   Christian Kollmar      : KDIIS, OOCD, Brueckner-CCSD(T), CCSD density, CASPT2, CASPT2-K, improved NEVPT2
   Axel Koslowski         : Symmetry handling
   Simone Kossmann        : Meta GGA functionals, TD-DFT gradient, OOMP2, (MP2 Hessian; deprecated post 5.0)
   Lucas Lang             : DCDCAS
   Marvin Lechner         : AUTO-CI (C++ implementation), FIC-MRCC
   Spencer Leger          : CASSCF response
   Dagmar Lenk            : GEPOL surface, SMD, ORCA-2-JSON
   Dimitrios Liakos       : Extrapolation schemes; Compound Job, initial MDCI parallelization
   Dimitrios Manganas     : Further ROCIS development; embedding schemes. LFT, Crystal Embedding
   Dimitrios Pantazis     : SARC Basis sets
   Anastasios Papadopoulos: AUTO-CI, single reference methods and gradients
   Taras Petrenko         : pre 6.0 DFT Hessian and TD-DFT gradient, (ASA, deprecated), ECA, 1-Electron XAS/XES, NRVS
   Peter Pinski           : DLPNO-MP2, DLPNO-MP2 Gradient
   Christoph Reimann      : Effective Core Potentials
   Marius Retegan         : Local ZFS, SOC
   Christoph Riplinger    : Optimizer, TS searches, QM/MM, DLPNO-CCSD(T), (RO)-DLPNO pert. Triples
   Michael Roemelt        : Original ROCIS implementation
   Masaaki Saitow         : Open-shell DLPNO-CCSD energy and density
   Barbara Sandhoefer     : DKH picture change effects
   Kantharuban Sivalingam : CASSCF convergence/infrastructure, NEVPT2 and variants, FIC-MRCI
   Bernardo de Souza      : ESD, SOC TD-DFT
   Georgi Stoychev        : AutoAux, RI-MP2 NMR, DLPNO-MP2 response, X2C
   Van Anh Tran           : RI-MP2 g-tensors
   Willem Van den Heuvel  : Paramagnetic NMR
   Zikuan Wang            : NOTCH, Electric field optimization 
   Frank Wennmohs         : Technical directorship and infrastructure
   Hang Xu                : AUTO-CI-Response properties 


 We gratefully acknowledge several colleagues who have allowed us to
 interface, adapt or use parts of their codes:
   Stefan Grimme, W. Hujo, H. Kruse, P. Pracht,  : VdW corrections, initial TS optimization,
                  C. Bannwarth, S. Ehlert,         DFT functionals, gCP, sTDA/sTD-DF
                  L. Wittmann, M. Mueller
   Ed Valeev, F. Pavosevic, A. Kumar             : LibInt (2-el integral package), F12 methods
   Garnet Chan, S. Sharma, J. Yang, R. Olivares  : DMRG
   Ulf Ekstrom                                   : XCFun DFT Library
   Mihaly Kallay                                 : mrcc  (arbitrary order and MRCC methods)
   Frank Weinhold                                : gennbo (NPA and NBO analysis)
   Simon Mueller                                 : openCOSMO-RS
   Christopher J. Cramer and Donald G. Truhlar   : smd solvation model
   Lars Goerigk                                  : TD-DFT with DH, B97 family of functionals
   V. Asgeirsson, H. Jonsson                     : NEB implementation
   FAccTs GmbH                                   : IRC, NEB, NEB-TS, DLPNO-Multilevel, CI-OPT
                                                   MM, QMMM, 2- and 3-layer-ONIOM, Crystal-QMMM,
                                                   LR-CPCM, SF, NACMEs, symmetry and pop. for TD-DFT,
                                                   nearIR, NL-DFT gradient (VV10), updates on ESD,
                                                   ML-optimized integration grids, MBIS, APM,
                                                   GOAT, DOCKER, SOLVATOR, interface openCOSMO-RS
   S Lehtola, MJT Oliveira, MAL Marques          : LibXC Library
   Liviu Ungur et al                             : ANISO software


 Your calculation uses the libint2 library for the computation of 2-el integrals
 For citations please refer to: http://libint.valeyev.net

 Your ORCA version has been built with support for libXC version: 6.2.2
 For citations please refer to: https://libxc.gitlab.io

 This ORCA versions uses:
   CBLAS   interface :  Fast vector & matrix operations
   LAPACKE interface :  Fast linear algebra routines
   SCALAPACK package :  Parallel linear algebra routines
   Shared memory     :  Shared parallel matrices
   BLAS/LAPACK       :  OpenBLAS 0.3.27  USE64BITINT DYNAMIC_ARCH NO_AFFINITY Zen SINGLE_THREADED
        Core in use  :  Zen
   Copyright (c) 2011-2014, The OpenBLAS Project


Your calculation utilizes the atom-pairwise dispersion correction
with the Becke-Johnson damping scheme (D3BJ)


Warning: RI is on but no J-basis has been assigned. Assigning Def2/J (nothing to worry about!)
================================================================================

----- Orbital basis set information -----
Your calculation utilizes the basis: def2-TZVPPD
   F. Weigend and R. Ahlrichs, Phys. Chem. Chem. Phys. 7, 3297 (2005).
   D. Rappoport and F. Furche, J. Chem. Phys. 133, 134105 (2010)
   D. Rappoport, J. Chem. Phys. 155, 124102 (2021).

----- AuxJ basis set information -----
Your calculation utilizes the auxiliary basis: def2/J
   F. Weigend, Phys. Chem. Chem. Phys. 8, 1057 (2006).

================================================================================
                                        WARNINGS
                       Please study these warnings very carefully!
================================================================================

Using LibXC functional ID 531 : wB97M-V exchange-correlation functional
[ 1]  N. Mardirossian and M. Head-Gordon.,  J. Chem. Phys. 144, 214110 (2016)
Using LibXC functional ID 531 : wB97M-V exchange-correlation functional
[ 1]  N. Mardirossian and M. Head-Gordon.,  J. Chem. Phys. 144, 214110 (2016)

WARNING: B97M-V or wB97M-V functional requested.
  ===> : libXC variant has now been activated.
         Any manually given DFX/HFX/RangeSep scaling parameters are IGNORED!

Your calculation utilizes LibXC
 by S Lehtola, C Steigemann, MJT Oliveira & MAL Marques
Please cite in your paper:
 S Lehtola, C Steigemann, MJT Oliveira & MAL Marques, SoftwareX, 7, (2018), 1.
   


WARNING: your system is open-shell and RHF/RKS was chosen
  ===> : WILL SWITCH to UHF/UKS

INFO   : Checking CIS options ...

WARNING: CIS/ROCIS methods need fully converged wavefunctions
  ===> : Setting SCFConvForced true
         You can overwrite this default with %scf ConvForced false 


================================================================================
                                       INPUT FILE
================================================================================
NAME = orca.inp
|  1> ! Engrad def2-TZVPPD wB97M-D3BJ 
|  2> %pal nprocs 8 end%pal nprocs 64 end 
|  3> %tddft 
|  4>  Iroot 2 Nroots 3 
|  5> sf true 
|  6> end 
|  7> *xyz 0 3 
|  8> O   2.76497418 -0.95694726 -2.49554554
|  9> O   -2.50749183 1.40380648 -1.25370096
| 10> O   -1.26935553 -2.46484316 -1.08869196
| 11> O   -2.4550779 0.81865179 3.15915599
| 12> N   0.08748123 -1.54340175 0.43367244
| 13> N   -0.36671913 1.00888376 2.16791609
| 14> N   0.79202861 -1.74517159 -1.73739765
| 15> N   -2.47021888 0.95130211 0.9002148
| 16> C   2.24681204 -0.50699843 -0.20273698
| 17> C   -0.34401289 1.27901975 -0.22828743
| 18> C   1.11117912 -0.47308595 0.75740153
| 19> C   0.46397909 0.93559292 0.94504567
| 20> C   3.66237543 -0.31018254 0.20782444
| 21> C   0.37890615 1.73884909 -1.47961404
| 22> C   1.96084779 -1.08293652 -1.52340391
| 23> C   -1.77137257 1.25822108 -0.27446444
| 24> C   -0.26398176 -1.91386043 -0.81858766
| 25> C   -1.7886744 0.85362063 2.1329025
| 26> H   1.43143183 -0.65132527 1.77996112
| 27> H   1.30384483 1.57625006 1.05520934
| 28> H   4.16724409 -1.32399704 0.48127534
| 29> H   4.35924465 0.09295455 -0.57219925
| 30> H   3.6069736 0.36071095 1.09139086
| 31> H   -0.11787008 2.5819329 -1.95645219
| 32> H   1.36353579 2.04033047 -1.12401732
| 33> H   0.33296694 0.91740252 -2.24342533
| 34> H   -0.68287281 -1.49594952 1.06717829
| 35> H   0.04981939 1.24193998 3.00791908
| 36> H   0.52987893 -2.09685934 -2.65005906
| 37> H   -3.52675767 0.91493088 0.87835759
| 38> *
| 39> 
| 40>                          ****END OF INPUT****
================================================================================

                     *******************************
                     * Energy+Gradient Calculation *
                     *******************************

---------------------------------
CARTESIAN COORDINATES (ANGSTROEM)
---------------------------------
  O      2.764974   -0.956947   -2.495546
  O     -2.507492    1.403806   -1.253701
  O     -1.269356   -2.464843   -1.088692
  O     -2.455078    0.818652    3.159156
  N      0.087481   -1.543402    0.433672
  N     -0.366719    1.008884    2.167916
  N      0.792029   -1.745172   -1.737398
  N     -2.470219    0.951302    0.900215
  C      2.246812   -0.506998   -0.202737
  C     -0.344013    1.279020   -0.228287
  C      1.111179   -0.473086    0.757402
  C      0.463979    0.935593    0.945046
  C      3.662375   -0.310183    0.207824
  C      0.378906    1.738849   -1.479614
  C      1.960848   -1.082937   -1.523404
  C     -1.771373    1.258221   -0.274464
  C     -0.263982   -1.913860   -0.818588
  C     -1.788674    0.853621    2.132902
  H      1.431432   -0.651325    1.779961
  H      1.303845    1.576250    1.055209
  H      4.167244   -1.323997    0.481275
  H      4.359245    0.092955   -0.572199
  H      3.606974    0.360711    1.091391
  H     -0.117870    2.581933   -1.956452
  H      1.363536    2.040330   -1.124017
  H      0.332967    0.917403   -2.243425
  H     -0.682873   -1.495950    1.067178
  H      0.049819    1.241940    3.007919
  H      0.529879   -2.096859   -2.650059
  H     -3.526758    0.914931    0.878358

----------------------------
CARTESIAN COORDINATES (A.U.)
----------------------------
  NO LB      ZA    FRAG     MASS         X           Y           Z
   0 O     8.0000    0    15.999    5.225044   -1.808368   -4.715898
   1 O     8.0000    0    15.999   -4.738473    2.652810   -2.369151
   2 O     8.0000    0    15.999   -2.398734   -4.657879   -2.057330
   3 O     8.0000    0    15.999   -4.639425    1.547028    5.969940
   4 N     7.0000    0    14.007    0.165316   -2.916607    0.819522
   5 N     7.0000    0    14.007   -0.692999    1.906514    4.096768
   6 N     7.0000    0    14.007    1.496717   -3.297896   -3.283206
   7 N     7.0000    0    14.007   -4.668037    1.797700    1.701159
   8 C     6.0000    0    12.011    4.245859   -0.958088   -0.383117
   9 C     6.0000    0    12.011   -0.650090    2.416997   -0.431401
  10 C     6.0000    0    12.011    2.099824   -0.894003    1.431281
  11 C     6.0000    0    12.011    0.876793    1.768014    1.785878
  12 C     6.0000    0    12.011    6.920887   -0.586160    0.392731
  13 C     6.0000    0    12.011    0.716029    3.285949   -2.796065
  14 C     6.0000    0    12.011    3.705465   -2.046453   -2.878816
  15 C     6.0000    0    12.011   -3.347409    2.377693   -0.518663
  16 C     6.0000    0    12.011   -0.498853   -3.616672   -1.546906
  17 C     6.0000    0    12.011   -3.380105    1.613109    4.030602
  18 H     1.0000    0     1.008    2.705014   -1.230826    3.363639
  19 H     1.0000    0     1.008    2.463910    2.978681    1.994057
  20 H     1.0000    0     1.008    7.874950   -2.501992    0.909479
  21 H     1.0000    0     1.008    8.237779    0.175659   -1.081300
  22 H     1.0000    0     1.008    6.816192    0.681645    2.062430
  23 H     1.0000    0     1.008   -0.222742    4.879146   -3.697159
  24 H     1.0000    0     1.008    2.576709    3.855666   -2.124085
  25 H     1.0000    0     1.008    0.629216    1.733640   -4.239459
  26 H     1.0000    0     1.008   -1.290443   -2.826935    2.016675
  27 H     1.0000    0     1.008    0.094145    2.346926    5.684143
  28 H     1.0000    0     1.008    1.001326   -3.962490   -5.007886
  29 H     1.0000    0     1.008   -6.664606    1.728969    1.659855

--------------------------------
INTERNAL COORDINATES (ANGSTROEM)
--------------------------------
 O      0   0   0     0.000000000000     0.00000000     0.00000000
 O      1   0   0     5.908826787815     0.00000000     0.00000000
 O      2   1   0     4.065299436023    49.95157307     0.00000000
 O      2   1   3     4.451792862707    98.35515311    69.72899046
 N      3   2   1     2.237778727162    79.65535070    62.38335977
 N      4   2   1     2.319479918861    64.92549468    26.94527033
 N      1   2   3     2.255792552452    44.64694004   357.83073230
 N      2   1   3     2.201250230857    96.22361837    65.93990550
 C      1   2   3     2.393306717861    61.98886211   278.18540355
 C      2   1   3     2.397433160552    42.59706228   104.75045966
 C      9   1   2     1.487507359199   141.99341366    32.99571696
 C     10   2   1     1.465436314162   148.45358558   233.62720465
 C      9   1   2     1.486982476446    94.77756436   207.88257610
 C     10   2   1     1.516533298419    93.52451610    50.20654637
 C      1   2   3     1.267892697948    46.57836893   312.38429512
 C      2   1   3     1.233681821110    65.62222750    85.00839693
 C      3   2   1     1.177843248926    79.86968862    31.90455871
 C      4   2   1     1.224137521000    34.06923132    16.95053309
 H     11   9   1     1.086259254763   112.25909140   153.20627561
 H     12  10   2     1.062050877523   112.19146476   213.33989398
 H     13   9   1     1.165112697970   111.23163805   273.87188268
 H     13   9   1     1.120974210265   116.56936412    30.13048208
 H     13   9   1     1.110791184806   104.60093950   153.81684214
 H     14  10   2     1.088554800951   112.25530987    44.15254410
 H     14  10   2     1.089419835384   104.20670241   163.08649882
 H     14  10   2     1.122627527327   108.66438767   289.10636263
 H      5   3   2     0.998512254837    89.04880495    74.82828359
 H      6   4   2     0.966138998040    92.08607630   160.01201836
 H      7   1   2     1.012599416120    92.57149599   100.59677596
 H      8   2   1     1.057390570591    88.27660009   208.07224643

---------------------------
INTERNAL COORDINATES (A.U.)
---------------------------
 O      0   0   0     0.000000000000     0.00000000     0.00000000
 O      1   0   0    11.166064401749     0.00000000     0.00000000
 O      2   1   0     7.682302586468    49.95157307     0.00000000
 O      2   1   3     8.412669315462    98.35515311    69.72899046
 N      3   2   1     4.228788942651    79.65535070    62.38335977
 N      4   2   1     4.383181819777    64.92549468    26.94527033
 N      1   2   3     4.262830139074    44.64694004   357.83073230
 N      2   1   3     4.159760088550    96.22361837    65.93990550
 C      1   2   3     4.522694251231    61.98886211   278.18540355
 C      2   1   3     4.530492097825    42.59706228   104.75045966
 C      9   1   2     2.810981531079   141.99341366    32.99571696
 C     10   2   1     2.769273300469   148.45358558   233.62720465
 C      9   1   2     2.809989646423    94.77756436   207.88257610
 C     10   2   1     2.865832606984    93.52451610    50.20654637
 C      1   2   3     2.395969966319    46.57836893   312.38429512
 C      2   1   3     2.331320778296    65.62222750    85.00839693
 C      3   2   1     2.225801169158    79.86968862    31.90455871
 C      4   2   1     2.313284664948    34.06923132    16.95053309
 H     11   9   1     2.052732501939   112.25909140   153.20627561
 H     12  10   2     2.006985298809   112.19146476   213.33989398
 H     13   9   1     2.201743914318   111.23163805   273.87188268
 H     13   9   1     2.118334260589   116.56936412    30.13048208
 H     13   9   1     2.099091131258   104.60093950   153.81684214
 H     14  10   2     2.057070455562   112.25530987    44.15254410
 H     14  10   2     2.058705133737   104.20670241   163.08649882
 H     14  10   2     2.121458577049   108.66438767   289.10636263
 H      5   3   2     1.886914703007    89.04880495    74.82828359
 H      6   4   2     1.825738113596    92.08607630   160.01201836
 H      7   1   2     1.913535579836    92.57149599   100.59677596
 H      8   2   1     1.998178595008    88.27660009   208.07224643

---------------------
BASIS SET INFORMATION
---------------------
There are 4 groups of distinct atoms

 Group   1 Type O   : 12s7p3d1f contracted to 6s4p3d1f pattern {621111/4111/111/1}
 Group   2 Type N   : 12s6p3d1f contracted to 6s3p3d1f pattern {621111/411/111/1}
 Group   3 Type C   : 12s6p3d1f contracted to 6s3p3d1f pattern {621111/411/111/1}
 Group   4 Type H   : 5s3p1d contracted to 3s3p1d pattern {311/111/1}

Atom   0O    basis set group =>   1
Atom   1O    basis set group =>   1
Atom   2O    basis set group =>   1
Atom   3O    basis set group =>   1
Atom   4N    basis set group =>   2
Atom   5N    basis set group =>   2
Atom   6N    basis set group =>   2
Atom   7N    basis set group =>   2
Atom   8C    basis set group =>   3
Atom   9C    basis set group =>   3
Atom  10C    basis set group =>   3
Atom  11C    basis set group =>   3
Atom  12C    basis set group =>   3
Atom  13C    basis set group =>   3
Atom  14C    basis set group =>   3
Atom  15C    basis set group =>   3
Atom  16C    basis set group =>   3
Atom  17C    basis set group =>   3
Atom  18H    basis set group =>   4
Atom  19H    basis set group =>   4
Atom  20H    basis set group =>   4
Atom  21H    basis set group =>   4
Atom  22H    basis set group =>   4
Atom  23H    basis set group =>   4
Atom  24H    basis set group =>   4
Atom  25H    basis set group =>   4
Atom  26H    basis set group =>   4
Atom  27H    basis set group =>   4
Atom  28H    basis set group =>   4
Atom  29H    basis set group =>   4
---------------------------------
AUXILIARY/J BASIS SET INFORMATION
---------------------------------
There are 4 groups of distinct atoms

 Group   1 Type O   : 12s5p4d2f1g contracted to 6s4p3d1f1g pattern {711111/2111/211/2/1}
 Group   2 Type N   : 12s5p4d2f1g contracted to 6s4p3d1f1g pattern {711111/2111/211/2/1}
 Group   3 Type C   : 12s5p4d2f1g contracted to 6s4p3d1f1g pattern {711111/2111/211/2/1}
 Group   4 Type H   : 5s2p1d contracted to 3s1p1d pattern {311/2/1}

Atom   0O    basis set group =>   1
Atom   1O    basis set group =>   1
Atom   2O    basis set group =>   1
Atom   3O    basis set group =>   1
Atom   4N    basis set group =>   2
Atom   5N    basis set group =>   2
Atom   6N    basis set group =>   2
Atom   7N    basis set group =>   2
Atom   8C    basis set group =>   3
Atom   9C    basis set group =>   3
Atom  10C    basis set group =>   3
Atom  11C    basis set group =>   3
Atom  12C    basis set group =>   3
Atom  13C    basis set group =>   3
Atom  14C    basis set group =>   3
Atom  15C    basis set group =>   3
Atom  16C    basis set group =>   3
Atom  17C    basis set group =>   3
Atom  18H    basis set group =>   4
Atom  19H    basis set group =>   4
Atom  20H    basis set group =>   4
Atom  21H    basis set group =>   4
Atom  22H    basis set group =>   4
Atom  23H    basis set group =>   4
Atom  24H    basis set group =>   4
Atom  25H    basis set group =>   4
Atom  26H    basis set group =>   4
Atom  27H    basis set group =>   4
Atom  28H    basis set group =>   4
Atom  29H    basis set group =>   4
[1741401497.811825] [ohm:1433421:0]        ib_iface.c:1059 UCX  ERROR ibv_create_cq(cqe=256) failed: Connection timed out
[1741401497.826824] [ohm:1433413:0]        ib_iface.c:1059 UCX  ERROR ibv_create_cq(cqe=256) failed: Connection timed out
[1741401497.875921] [ohm:1433420:0]        ib_iface.c:1059 UCX  ERROR ibv_create_cq(cqe=256) failed: Connection timed out
[1741401497.885316] [ohm:1433418:0]        ib_iface.c:1059 UCX  ERROR ibv_create_cq(cqe=256) failed: Connection timed out
[1741401497.888310] [ohm:1433416:0]        ib_iface.c:1059 UCX  ERROR ibv_create_cq(cqe=256) failed: Connection timed out
[1741401497.903795] [ohm:1433423:0]        ib_iface.c:1059 UCX  ERROR ibv_create_cq(cqe=256) failed: Connection timed out
[1741401497.905903] [ohm:1433443:0]        ib_iface.c:1059 UCX  ERROR ibv_create_cq(cqe=256) failed: Connection timed out
[1741401497.916640] [ohm:1433414:0]        ib_iface.c:1059 UCX  ERROR ibv_create_cq(cqe=256) failed: Connection timed out
[1741401497.920032] [ohm:1433433:0]        ib_iface.c:1059 UCX  ERROR ibv_create_cq(cqe=256) failed: Connection timed out
[1741401497.931094] [ohm:1433436:0]        ib_iface.c:1059 UCX  ERROR ibv_create_cq(cqe=256) failed: Connection timed out
[1741401497.935594] [ohm:1433417:0]        ib_iface.c:1059 UCX  ERROR ibv_create_cq(cqe=256) failed: Connection timed out
[1741401497.941459] [ohm:1433472:0]        ib_iface.c:1059 UCX  ERROR ibv_create_cq(cqe=256) failed: Connection timed out
[1741401497.941708] [ohm:1433484:0]        ib_iface.c:1059 UCX  ERROR ibv_create_cq(cqe=256) failed: Connection timed out
[1741401497.967707] [ohm:1433437:0]        ib_iface.c:1059 UCX  ERROR ibv_create_cq(cqe=256) failed: Connection timed out
[1741401497.983313] [ohm:1433465:0]        ib_iface.c:1059 UCX  ERROR ibv_create_cq(cqe=256) failed: Connection timed out
[1741401497.988570] [ohm:1433462:0]        ib_iface.c:1059 UCX  ERROR ibv_create_cq(cqe=256) failed: Connection timed out
[1741401498.007299] [ohm:1433438:0]        ib_iface.c:1059 UCX  ERROR ibv_create_cq(cqe=256) failed: Connection timed out
[1741401498.025172] [ohm:1433522:0]        ib_iface.c:1059 UCX  ERROR ibv_create_cq(cqe=256) failed: Connection timed out
[1741401498.028856] [ohm:1433479:0]        ib_iface.c:1059 UCX  ERROR ibv_create_cq(cqe=256) failed: Connection timed out
[1741401498.059664] [ohm:1433429:0]        ib_iface.c:1059 UCX  ERROR ibv_create_cq(cqe=256) failed: Connection timed out
[1741401498.063038] [ohm:1433431:0]        ib_iface.c:1059 UCX  ERROR ibv_create_cq(cqe=256) failed: Connection timed out
[1741401498.070350] [ohm:1433439:0]        ib_iface.c:1059 UCX  ERROR ibv_create_cq(cqe=256) failed: Connection timed out
[1741401498.073555] [ohm:1433442:0]        ib_iface.c:1059 UCX  ERROR ibv_create_cq(cqe=256) failed: Connection timed out
[1741401498.079147] [ohm:1433529:0]        ib_iface.c:1059 UCX  ERROR ibv_create_cq(cqe=256) failed: Connection timed out
[1741401498.083107] [ohm:1433424:0]        ib_iface.c:1059 UCX  ERROR ibv_create_cq(cqe=256) failed: Connection timed out
[1741401498.087830] [ohm:1433555:0]        ib_iface.c:1059 UCX  ERROR ibv_create_cq(cqe=256) failed: Connection timed out
[1741401498.090555] [ohm:1433568:0]        ib_iface.c:1059 UCX  ERROR ibv_create_cq(cqe=256) failed: Connection timed out
[1741401498.093127] [ohm:1433440:0]        ib_iface.c:1059 UCX  ERROR ibv_create_cq(cqe=256) failed: Connection timed out
[1741401498.093202] [ohm:1433430:0]        ib_iface.c:1059 UCX  ERROR ibv_create_cq(cqe=256) failed: Connection timed out
[1741401498.113001] [ohm:1433489:0]        ib_iface.c:1059 UCX  ERROR ibv_create_cq(cqe=256) failed: Connection timed out
[1741401498.122192] [ohm:1433458:0]        ib_iface.c:1059 UCX  ERROR ibv_create_cq(cqe=256) failed: Connection timed out
[1741401498.122941] [ohm:1433504:0]        ib_iface.c:1059 UCX  ERROR ibv_create_cq(cqe=256) failed: Connection timed out
[1741401498.123309] [ohm:1433435:0]        ib_iface.c:1059 UCX  ERROR ibv_create_cq(cqe=256) failed: Connection timed out
[1741401498.127915] [ohm:1433434:0]        ib_iface.c:1059 UCX  ERROR ibv_create_cq(cqe=256) failed: Connection timed out
[1741401498.129236] [ohm:1433493:0]        ib_iface.c:1059 UCX  ERROR ibv_create_cq(cqe=256) failed: Connection timed out
[1741401498.134436] [ohm:1433447:0]        ib_iface.c:1059 UCX  ERROR ibv_create_cq(cqe=256) failed: Connection timed out
[1741401498.141613] [ohm:1433450:0]        ib_iface.c:1059 UCX  ERROR ibv_create_cq(cqe=256) failed: Connection timed out
[1741401498.156427] [ohm:1433549:0]        ib_iface.c:1059 UCX  ERROR ibv_create_cq(cqe=256) failed: Connection timed out
[1741401498.158038] [ohm:1433475:0]        ib_iface.c:1059 UCX  ERROR ibv_create_cq(cqe=256) failed: Connection timed out
[1741401498.159632] [ohm:1433456:0]        ib_iface.c:1059 UCX  ERROR ibv_create_cq(cqe=256) failed: Connection timed out
[1741401498.159954] [ohm:1433561:0]        ib_iface.c:1059 UCX  ERROR ibv_create_cq(cqe=256) failed: Connection timed out
[1741401498.165356] [ohm:1433419:0]        ib_iface.c:1059 UCX  ERROR ibv_create_cq(cqe=256) failed: Connection timed out
[1741401498.170382] [ohm:1433427:0]        ib_iface.c:1059 UCX  ERROR ibv_create_cq(cqe=256) failed: Connection timed out
[1741401498.171885] [ohm:1433415:0]        ib_iface.c:1059 UCX  ERROR ibv_create_cq(cqe=256) failed: Connection timed out
[1741401498.172853] [ohm:1433425:0]        ib_iface.c:1059 UCX  ERROR ibv_create_cq(cqe=256) failed: Connection timed out
[1741401498.174699] [ohm:1433428:0]        ib_iface.c:1059 UCX  ERROR ibv_create_cq(cqe=256) failed: Connection timed out
[1741401498.182069] [ohm:1433432:0]        ib_iface.c:1059 UCX  ERROR ibv_create_cq(cqe=256) failed: Connection timed out
[1741401498.182293] [ohm:1433533:0]        ib_iface.c:1059 UCX  ERROR ibv_create_cq(cqe=256) failed: Connection timed out
[1741401498.182652] [ohm:1433528:0]        ib_iface.c:1059 UCX  ERROR ibv_create_cq(cqe=256) failed: Connection timed out
[1741401498.184730] [ohm:1433498:0]        ib_iface.c:1059 UCX  ERROR ibv_create_cq(cqe=256) failed: Connection timed out
[1741401498.185198] [ohm:1433499:0]        ib_iface.c:1059 UCX  ERROR ibv_create_cq(cqe=256) failed: Connection timed out
[1741401498.186779] [ohm:1433516:0]        ib_iface.c:1059 UCX  ERROR ibv_create_cq(cqe=256) failed: Connection timed out
[1741401498.189510] [ohm:1433535:0]        ib_iface.c:1059 UCX  ERROR ibv_create_cq(cqe=256) failed: Connection timed out
[1741401498.194182] [ohm:1433511:0]        ib_iface.c:1059 UCX  ERROR ibv_create_cq(cqe=256) failed: Connection timed out
[1741401498.197255] [ohm:1433520:0]        ib_iface.c:1059 UCX  ERROR ibv_create_cq(cqe=256) failed: Connection timed out
[1741401498.198245] [ohm:1433468:0]        ib_iface.c:1059 UCX  ERROR ibv_create_cq(cqe=256) failed: Connection timed out
[1741401498.200438] [ohm:1433508:0]        ib_iface.c:1059 UCX  ERROR ibv_create_cq(cqe=256) failed: Connection timed out
[1741401498.201362] [ohm:1433545:0]        ib_iface.c:1059 UCX  ERROR ibv_create_cq(cqe=256) failed: Connection timed out
[1741401498.203517] [ohm:1433513:0]        ib_iface.c:1059 UCX  ERROR ibv_create_cq(cqe=256) failed: Connection timed out
[1741401498.204081] [ohm:1433426:0]        ib_iface.c:1059 UCX  ERROR ibv_create_cq(cqe=256) failed: Connection timed out
[1741401498.204087] [ohm:1433539:0]        ib_iface.c:1059 UCX  ERROR ibv_create_cq(cqe=256) failed: Connection timed out
[1741401498.204081] [ohm:1433505:0]        ib_iface.c:1059 UCX  ERROR ibv_create_cq(cqe=256) failed: Connection timed out
[1741401498.204165] [ohm:1433524:0]        ib_iface.c:1059 UCX  ERROR ibv_create_cq(cqe=256) failed: Connection timed out
[1741401498.204518] [ohm:1433542:0]        ib_iface.c:1059 UCX  ERROR ibv_create_cq(cqe=256) failed: Connection timed out


           ************************************************************
           *        Program running with 64 parallel MPI-processes    *
           *              working on a common directory               *
           ************************************************************
------------------------------------------------------------------------------
                             ORCA STARTUP CALCULATIONS
                           -- RI-GTO INTEGRALS CHOSEN --
------------------------------------------------------------------------------
------------------------------------------------------------------------------
                   ___                                                        
                  /   \      - P O W E R E D   B Y -                         
                 /     \                                                     
                 |  |  |   _    _      __       _____    __    __             
                 |  |  |  | |  | |    /  \     |  _  \  |  |  /  |          
                  \  \/   | |  | |   /    \    | | | |  |  | /  /          
                 / \  \   | |__| |  /  /\  \   | |_| |  |  |/  /          
                |  |  |   |  __  | /  /__\  \  |    /   |      \           
                |  |  |   | |  | | |   __   |  |    \   |  |\   \          
                \     /   | |  | | |  |  |  |  | |\  \  |  | \   \       
                 \___/    |_|  |_| |__|  |__|  |_| \__\ |__|  \__/        
                                                                              
                      - O R C A' S   B I G   F R I E N D -                    
                                      &                                       
                       - I N T E G R A L  F E E D E R -                       
                                                                              
 v1 FN, 2020, v2 2021, v3 2022-2024                                           
------------------------------------------------------------------------------


----------------------
SHARK INTEGRAL PACKAGE
----------------------

Number of atoms                             ...     30
Number of basis functions                   ...    882
Number of shells                            ...    322
Maximum angular momentum                    ...      3
Integral batch strategy                     ... SHARK/LIBINT Hybrid
RI-J (if used) integral strategy            ... SPLIT-RIJ (Revised 2003 algorithm where possible)
Printlevel                                  ...      1
Contraction scheme used                     ... SEGMENTED contraction
Prescreening option                         ... SCHWARTZ
   Thresh                                   ... 2.500e-11
   Tcut                                     ... 2.500e-12
   Tpresel                                  ... 2.500e-12 
Coulomb Range Separation                    ... NOT USED
Exchange Range Separation                   ... Long Range
   Mu parameter                             ... 3.000e-01
   Scaling (regular/separated)              ... 1.500e-01 8.500e-01
Multipole approximations                    ... NOT USED
Finite Nucleus Model                        ... NOT USED
CABS basis                                  ... NOT available
Auxiliary Coulomb fitting basis             ... AVAILABLE
   # of basis functions in Aux-J            ...   1014
   # of shells in Aux-J                     ...    330
   Maximum angular momentum in Aux-J        ...      4
Auxiliary J/K fitting basis                 ... NOT available
Auxiliary Correlation fitting basis         ... NOT available
Auxiliary 'external' fitting basis          ... NOT available

Checking pre-screening integrals            ... done (  0.0 sec) Dimension = 322
Check shell pair data                       ... done (  0.0 sec)
Shell pair information
Shell pair cut-off parameter TPreSel        ...   2.5e-12
Total number of shell pairs                 ...     52003
Shell pairs after pre-screening             ...     44591
Total number of primitive shell pairs       ...    129718
Primitive shell pairs kept                  ...     83213
          la=0 lb=0:   8644 shell pairs
          la=1 lb=0:  11815 shell pairs
          la=1 lb=1:   4081 shell pairs
          la=2 lb=0:   8019 shell pairs
          la=2 lb=1:   5554 shell pairs
          la=2 lb=2:   1896 shell pairs
          la=3 lb=0:   2018 shell pairs
          la=3 lb=1:   1445 shell pairs
          la=3 lb=2:    988 shell pairs
          la=3 lb=3:    131 shell pairs

Calculating one electron integrals          ... done (  0.2 sec)
Calculating RI/J V-Matrix + Cholesky decomp.... done (  0.1 sec)
Calculating Nuclear repulsion               ... done (  0.0 sec) ENN=   1415.912602883559 Eh

Diagonalization of the overlap matrix:
Smallest eigenvalue                        ... 4.990e-07
Time for diagonalization                   ...    0.125 sec
Threshold for overlap eigenvalues          ... 1.000e-07
Number of eigenvalues below threshold      ... 0

IMPORTANT:
Smallest eigenvalue of S below the DiffSThresh (1.000e-06) while
Thresh>1e-12 and/or TCut>1e-13! In order to avoid SCF convergence issues,
Thresh will be set to at least 1e-12 and TCut to at least 1e-13.
This can be turned off by adding %SCF DiffSThresh -1 END to the input.

Time for construction of square roots      ...    0.127 sec
Total time needed                          ...    0.267 sec

-------------------
DFT GRID GENERATION
-------------------

General Integration Accuracy     IntAcc      ... 4.388
Radial Grid Type                 RadialGrid  ... OptM3 with GC (2021)
Angular Grid (max. ang.)         AngularGrid ... 4 (Lebedev-302)
Angular grid pruning method      GridPruning ... 4 (adaptive)
Weight generation scheme         WeightScheme... mBecke (2022)
Basis function cutoff            BFCut       ... 1.0000e-11
Integration weight cutoff        WCut        ... 1.0000e-14
Partially contracted basis set               ... off
Rotationally invariant grid construction     ... off
Angular grids for H and He will be reduced by one unit
Diffuse basis detected: some atoms will have their outermost
                        angular grid increased by 1.

Total number of grid points                  ...   152036
Total number of batches                      ...     2391
Average number of points per batch           ...       63
Average number of grid points per atom       ...     5068

--------------------
COSX GRID GENERATION
--------------------

GRIDX 1
-------
General Integration Accuracy     IntAcc      ... 3.816
Radial Grid Type                 RadialGrid  ... OptM3 with GC (2021)
Angular Grid (max. ang.)         AngularGrid ... 1 (Lebedev-50)
Angular grid pruning method      GridPruning ... 4 (adaptive)
Weight generation scheme         WeightScheme... mBecke (2022)
Basis function cutoff            BFCut       ... 1.0000e-11
Integration weight cutoff        WCut        ... 1.0000e-14
Partially contracted basis set               ... on
Rotationally invariant grid construction     ... off
Angular grids for H and He will be reduced by one unit
Diffuse basis detected: some atoms will have their outermost
                        angular grid increased by 1.

Total number of grid points                  ...    19041
Total number of batches                      ...      166
Average number of points per batch           ...      114
Average number of grid points per atom       ...      635
UseSFitting                                  ... on

GRIDX 2
-------
General Integration Accuracy     IntAcc      ... 4.020
Radial Grid Type                 RadialGrid  ... OptM3 with GC (2021)
Angular Grid (max. ang.)         AngularGrid ... 2 (Lebedev-110)
Angular grid pruning method      GridPruning ... 4 (adaptive)
Weight generation scheme         WeightScheme... mBecke (2022)
Basis function cutoff            BFCut       ... 1.0000e-11
Integration weight cutoff        WCut        ... 1.0000e-14
Partially contracted basis set               ... on
Rotationally invariant grid construction     ... off
Angular grids for H and He will be reduced by one unit
Diffuse basis detected: some atoms will have their outermost
                        angular grid increased by 1.

Total number of grid points                  ...    45979
Total number of batches                      ...      373
Average number of points per batch           ...      123
Average number of grid points per atom       ...     1533
UseSFitting                                  ... on

GRIDX 3
-------
General Integration Accuracy     IntAcc      ... 4.338
Radial Grid Type                 RadialGrid  ... OptM3 with GC (2021)
Angular Grid (max. ang.)         AngularGrid ... 3 (Lebedev-194)
Angular grid pruning method      GridPruning ... 4 (adaptive)
Weight generation scheme         WeightScheme... mBecke (2022)
Basis function cutoff            BFCut       ... 1.0000e-11
Integration weight cutoff        WCut        ... 1.0000e-14
Partially contracted basis set               ... on
Rotationally invariant grid construction     ... off
Angular grids for H and He will be reduced by one unit
Diffuse basis detected: some atoms will have their outermost
                        angular grid increased by 1.

Total number of grid points                  ...   101121
Total number of batches                      ...      802
Average number of points per batch           ...      126
Average number of grid points per atom       ...     3371
UseSFitting                                  ... on
Initializing property integral containers    ... done (  0.0 sec)

SHARK setup successfully completed in   4.0 seconds

Maximum memory used throughout the entire STARTUP-calculation: 79.6 MB
[1741401504.074080] [ohm:1433794:0]        ib_iface.c:1059 UCX  ERROR ibv_create_cq(cqe=256) failed: Connection timed out
[1741401504.074994] [ohm:1433798:0]        ib_iface.c:1059 UCX  ERROR ibv_create_cq(cqe=256) failed: Connection timed out
[1741401504.079493] [ohm:1433791:0]        ib_iface.c:1059 UCX  ERROR ibv_create_cq(cqe=256) failed: Connection timed out
[1741401504.082135] [ohm:1433803:0]        ib_iface.c:1059 UCX  ERROR ibv_create_cq(cqe=256) failed: Connection timed out
[1741401504.083261] [ohm:1433809:0]        ib_iface.c:1059 UCX  ERROR ibv_create_cq(cqe=256) failed: Connection timed out
[1741401504.090651] [ohm:1433824:0]        ib_iface.c:1059 UCX  ERROR ibv_create_cq(cqe=256) failed: Connection timed out
[1741401504.091052] [ohm:1433801:0]        ib_iface.c:1059 UCX  ERROR ibv_create_cq(cqe=256) failed: Connection timed out
[1741401504.097458] [ohm:1433811:0]        ib_iface.c:1059 UCX  ERROR ibv_create_cq(cqe=256) failed: Connection timed out
[1741401504.097851] [ohm:1433800:0]        ib_iface.c:1059 UCX  ERROR ibv_create_cq(cqe=256) failed: Connection timed out
[1741401504.098962] [ohm:1433795:0]        ib_iface.c:1059 UCX  ERROR ibv_create_cq(cqe=256) failed: Connection timed out
[1741401504.108954] [ohm:1433796:0]        ib_iface.c:1059 UCX  ERROR ibv_create_cq(cqe=256) failed: Connection timed out
[1741401504.120144] [ohm:1433887:0]        ib_iface.c:1059 UCX  ERROR ibv_create_cq(cqe=256) failed: Connection timed out
[1741401504.122088] [ohm:1433816:0]        ib_iface.c:1059 UCX  ERROR ibv_create_cq(cqe=256) failed: Connection timed out
[1741401504.126289] [ohm:1433882:0]        ib_iface.c:1059 UCX  ERROR ibv_create_cq(cqe=256) failed: Connection timed out
[1741401504.132708] [ohm:1433815:0]        ib_iface.c:1059 UCX  ERROR ibv_create_cq(cqe=256) failed: Connection timed out
[1741401504.139783] [ohm:1433808:0]        ib_iface.c:1059 UCX  ERROR ibv_create_cq(cqe=256) failed: Connection timed out
[1741401504.146135] [ohm:1433820:0]        ib_iface.c:1059 UCX  ERROR ibv_create_cq(cqe=256) failed: Connection timed out
[1741401504.194862] [ohm:1433908:0]        ib_iface.c:1059 UCX  ERROR ibv_create_cq(cqe=256) failed: Connection timed out
[1741401504.200640] [ohm:1433863:0]        ib_iface.c:1059 UCX  ERROR ibv_create_cq(cqe=256) failed: Connection timed out
[1741401504.204684] [ohm:1433842:0]        ib_iface.c:1059 UCX  ERROR ibv_create_cq(cqe=256) failed: Connection timed out
[1741401504.205031] [ohm:1433905:0]        ib_iface.c:1059 UCX  ERROR ibv_create_cq(cqe=256) failed: Connection timed out
[1741401504.211181] [ohm:1433831:0]        ib_iface.c:1059 UCX  ERROR ibv_create_cq(cqe=256) failed: Connection timed out
[1741401504.213266] [ohm:1433839:0]        ib_iface.c:1059 UCX  ERROR ibv_create_cq(cqe=256) failed: Connection timed out
[1741401504.223117] [ohm:1433914:0]        ib_iface.c:1059 UCX  ERROR ibv_create_cq(cqe=256) failed: Connection timed out
[1741401504.237598] [ohm:1433821:0]        ib_iface.c:1059 UCX  ERROR ibv_create_cq(cqe=256) failed: Connection timed out
[1741401504.237601] [ohm:1433819:0]        ib_iface.c:1059 UCX  ERROR ibv_create_cq(cqe=256) failed: Connection timed out
[1741401504.241780] [ohm:1433807:0]        ib_iface.c:1059 UCX  ERROR ibv_create_cq(cqe=256) failed: Connection timed out
[1741401504.244619] [ohm:1433922:0]        ib_iface.c:1059 UCX  ERROR ibv_create_cq(cqe=256) failed: Connection timed out
[1741401504.246821] [ohm:1433931:0]        ib_iface.c:1059 UCX  ERROR ibv_create_cq(cqe=256) failed: Connection timed out
[1741401504.252986] [ohm:1433804:0]        ib_iface.c:1059 UCX  ERROR ibv_create_cq(cqe=256) failed: Connection timed out
[1741401504.266114] [ohm:1433799:0]        ib_iface.c:1059 UCX  ERROR ibv_create_cq(cqe=256) failed: Connection timed out
[1741401504.270948] [ohm:1433806:0]        ib_iface.c:1059 UCX  ERROR ibv_create_cq(cqe=256) failed: Connection timed out
[1741401504.279551] [ohm:1433856:0]        ib_iface.c:1059 UCX  ERROR ibv_create_cq(cqe=256) failed: Connection timed out
[1741401504.292642] [ohm:1433814:0]        ib_iface.c:1059 UCX  ERROR ibv_create_cq(cqe=256) failed: Connection timed out
[1741401504.296954] [ohm:1433817:0]        ib_iface.c:1059 UCX  ERROR ibv_create_cq(cqe=256) failed: Connection timed out
[1741401504.297688] [ohm:1433865:0]        ib_iface.c:1059 UCX  ERROR ibv_create_cq(cqe=256) failed: Connection timed out
[1741401504.298497] [ohm:1433932:0]        ib_iface.c:1059 UCX  ERROR ibv_create_cq(cqe=256) failed: Connection timed out
[1741401504.298675] [ohm:1433835:0]        ib_iface.c:1059 UCX  ERROR ibv_create_cq(cqe=256) failed: Connection timed out
[1741401504.301786] [ohm:1433846:0]        ib_iface.c:1059 UCX  ERROR ibv_create_cq(cqe=256) failed: Connection timed out
[1741401504.315792] [ohm:1433810:0]        ib_iface.c:1059 UCX  ERROR ibv_create_cq(cqe=256) failed: Connection timed out
[1741401504.316286] [ohm:1433818:0]        ib_iface.c:1059 UCX  ERROR ibv_create_cq(cqe=256) failed: Connection timed out
[1741401504.320121] [ohm:1433813:0]        ib_iface.c:1059 UCX  ERROR ibv_create_cq(cqe=256) failed: Connection timed out
[1741401504.320225] [ohm:1433873:0]        ib_iface.c:1059 UCX  ERROR ibv_create_cq(cqe=256) failed: Connection timed out
[1741401504.324579] [ohm:1433886:0]        ib_iface.c:1059 UCX  ERROR ibv_create_cq(cqe=256) failed: Connection timed out
[1741401504.325967] [ohm:1433797:0]        ib_iface.c:1059 UCX  ERROR ibv_create_cq(cqe=256) failed: Connection timed out
[1741401504.330065] [ohm:1433812:0]        ib_iface.c:1059 UCX  ERROR ibv_create_cq(cqe=256) failed: Connection timed out
[1741401504.333458] [ohm:1433916:0]        ib_iface.c:1059 UCX  ERROR ibv_create_cq(cqe=256) failed: Connection timed out
[1741401504.338831] [ohm:1433911:0]        ib_iface.c:1059 UCX  ERROR ibv_create_cq(cqe=256) failed: Connection timed out
[1741401504.339302] [ohm:1433924:0]        ib_iface.c:1059 UCX  ERROR ibv_create_cq(cqe=256) failed: Connection timed out
[1741401504.339779] [ohm:1433802:0]        ib_iface.c:1059 UCX  ERROR ibv_create_cq(cqe=256) failed: Connection timed out
[1741401504.339942] [ohm:1433828:0]        ib_iface.c:1059 UCX  ERROR ibv_create_cq(cqe=256) failed: Connection timed out
[1741401504.340632] [ohm:1433894:0]        ib_iface.c:1059 UCX  ERROR ibv_create_cq(cqe=256) failed: Connection timed out
[1741401504.340700] [ohm:1433902:0]        ib_iface.c:1059 UCX  ERROR ibv_create_cq(cqe=256) failed: Connection timed out
[1741401504.340804] [ohm:1433880:0]        ib_iface.c:1059 UCX  ERROR ibv_create_cq(cqe=256) failed: Connection timed out
[1741401504.341404] [ohm:1433848:0]        ib_iface.c:1059 UCX  ERROR ibv_create_cq(cqe=256) failed: Connection timed out
[1741401504.342877] [ohm:1433892:0]        ib_iface.c:1059 UCX  ERROR ibv_create_cq(cqe=256) failed: Connection timed out
[1741401504.345093] [ohm:1433793:0]        ib_iface.c:1059 UCX  ERROR ibv_create_cq(cqe=256) failed: Connection timed out
[1741401504.345733] [ohm:1433870:0]        ib_iface.c:1059 UCX  ERROR ibv_create_cq(cqe=256) failed: Connection timed out
[1741401504.347259] [ohm:1433792:0]        ib_iface.c:1059 UCX  ERROR ibv_create_cq(cqe=256) failed: Connection timed out
[1741401504.348639] [ohm:1433898:0]        ib_iface.c:1059 UCX  ERROR ibv_create_cq(cqe=256) failed: Connection timed out
[1741401504.350508] [ohm:1433928:0]        ib_iface.c:1059 UCX  ERROR ibv_create_cq(cqe=256) failed: Connection timed out
[1741401504.360956] [ohm:1433805:0]        ib_iface.c:1059 UCX  ERROR ibv_create_cq(cqe=256) failed: Connection timed out
[1741401504.362649] [ohm:1433858:0]        ib_iface.c:1059 UCX  ERROR ibv_create_cq(cqe=256) failed: Connection timed out
[1741401504.372726] [ohm:1433853:0]        ib_iface.c:1059 UCX  ERROR ibv_create_cq(cqe=256) failed: Connection timed out


           ************************************************************
           *        Program running with 64 parallel MPI-processes    *
           *              working on a common directory               *
           ************************************************************
-------------------------------------------------------------------------------
                                 ORCA GUESS
                   Start orbitals & Density for SCF / CASSCF
-------------------------------------------------------------------------------

------------
SCF SETTINGS
------------
Hamiltonian:
 Density Functional     Method          .... DFT(GTOs)
  Functional kind                       .... Exchange-Correlation
  Functional name                       .... wB97M-V exchange-correlation functional
  Functional family                     .... Hybrid MGGA
  Functional refs                              
    [ 0] N. Mardirossian and M. Head-Gordon.,  J. Chem. Phys. 144, 214110 (2016), doi: 10.1063/1.4952647
  Fraction of HF Exchange (short range) .... 0.1500
  Fraction of HF Exchange (long range)  .... 1.0000
  Range separation parameter mu         .... 0.3000
  Functional external parameters        .... 17
    Parameter  0 _cx00      =  8.500000e-01 : u^00 coefficient for exchange
    Parameter  1 _cx01      =  1.007000e+00 : u^01 coefficient for exchange
    Parameter  2 _cx10      =  2.590000e-01 : u^10 coefficient for exchange
    Parameter  3 _css00     =  4.430000e-01 : u^00 coefficient for same-spin correlation
    Parameter  4 _css04     = -1.437000e+00 : u^04 coefficient for same-spin correlation
    Parameter  5 _css10     = -4.535000e+00 : u^10 coefficient for same-spin correlation
    Parameter  6 _css20     = -3.390000e+00 : u^20 coefficient for same-spin correlation
    Parameter  7 _css43     =  4.278000e+00 : u^43 coefficient for same-spin correlation
    Parameter  8 _cos00     =  1.000000e+00 : u^00 coefficient for opposite-spin correlation
    Parameter  9 _cos10     =  1.358000e+00 : u^10 coefficient for opposite-spin correlation
    Parameter 10 _cos20     =  2.924000e+00 : u^20 coefficient for opposite-spin correlation
    Parameter 11 _cos21     = -8.812000e+00 : u^21 coefficient for opposite-spin correlation
    Parameter 12 _cos60     = -1.390000e+00 : u^60 coefficient for opposite-spin correlation
    Parameter 13 _cos61     =  9.142000e+00 : u^61 coefficient for opposite-spin correlation
    Parameter 14 _alpha     =  1.000000e+00 : fraction of HF exchange
    Parameter 15 _beta      = -8.500000e-01 : fraction of short-range exchange
    Parameter 16 _omega     =  3.000000e-01 : range-separation constant
 Long-range corrected/Screened/Range-Separated Hybrid DFT is turned on
   Amount of maximum screened exact exchange              ....  0.850000
   Range separation parameter mu (erf(mu*r12)/r12)        ....  0.300000
 RI-approximation to the Coulomb term is turned on
   Number of AuxJ basis functions       .... 1014
   RIJ-COSX (HFX calculated with COS-X)).... on


General Settings:
 Integral files         IntName         .... orca
 Hartree-Fock type      HFTyp           .... UHF
 Total Charge           Charge          ....    0
 Multiplicity           Mult            ....    3
 Number of Electrons    NEL             ....  132
 Basis Dimension        Dim             ....  882
 Nuclear Repulsion      ENuc            ....   1415.9126028836 Eh

Convergence Acceleration:
 AO-DIIS                CNVDIIS         .... on
   Start iteration      DIISMaxIt       ....    12
   Startup error        DIISStart       ....  0.200000
   # of expansion vecs  DIISMaxEq       ....     5
   Bias factor          DIISBfac        ....   1.050
   Max. coefficient     DIISMaxC        ....  10.000
 MO-DIIS                CNVKDIIS        .... off
 Trust-Rad. Augm. Hess. CNVTRAH         .... auto
   Auto Start mean grad. ratio tolernc. ....  1.125000
   Auto Start start iteration           ....    50
   Auto Start num. interpolation iter.  ....    10
   Max. Number of Micro iterations      ....    24
   Max. Number of Macro iterations      .... Maxiter - #DIIS iter
   Number of Davidson start vectors     ....     2
   Converg. threshold    (grad. norm)   ....   1.000e-05
   Grad. Scal. Fac. for Micro threshold ....   0.100
   Minimum threshold for Micro iter.    ....   1.000e-02
   NR start threshold (gradient norm)   ....   1.000e-04
   Initial trust radius                 ....   0.400
   Minimum AH scaling param. (alpha)    ....   1.000
   Maximum AH scaling param. (alpha)    .... 1000.000
   Quad. conv. algorithm                .... NR
   White noise on init. David. guess    .... on
   Maximum white noise                  ....   0.010
   Pseudo random numbers                .... off
   Inactive MOs                         .... canonical
   Orbital update algorithm             .... Taylor
   Preconditioner                       .... Diag
   Full preconditioner red. dimension   ....   250
 SOSCF                  CNVSOSCF        .... on
   Start iteration      SOSCFMaxIt      ....   150
   Startup grad/error   SOSCFStart      ....  0.003300
   Hessian update       SOSCFHessUp     .... L-BFGS
 Level Shifting         CNVShift        .... on
   Level shift para.    LevelShift      ....    0.2500
   Turn off err/grad.   ShiftErr        ....    0.0010
 Zerner damping         CNVZerner       .... off
 Static damping         CNVDamp         .... on
   Fraction old density DampFac         ....    0.7000
   Max. Damping (<1)    DampMax         ....    0.9800
   Min. Damping (>=0)   DampMin         ....    0.0000
   Turn off err/grad.   DampErr         ....    0.1000

SCF Procedure:
 Maximum # iterations   MaxIter         ....   125
 SCF integral mode      SCFMode         .... Direct
   Integral package                     .... SHARK and LIBINT hybrid scheme
 Reset frequency        DirectResetFreq ....    20
 Integral Threshold     Thresh          ....  1.000e-12 Eh
 Primitive CutOff       TCut            ....  1.000e-13 Eh

Convergence Tolerance:
 Convergence Check Mode ConvCheckMode   .... Total+1el-Energy
 Convergence forced     ConvForced      .... 1
 Energy Change          TolE            ....  1.000e-08 Eh
 1-El. energy change                    ....  1.000e-05 Eh
 Orbital Gradient       TolG            ....  1.000e-05
 Orbital Rotation angle TolX            ....  1.000e-05
 DIIS Error             TolErr          ....  5.000e-07

------------------------------
INITIAL GUESS: MODEL POTENTIAL
------------------------------
Loading Hartree-Fock densities                     ... done
Calculating cut-offs                               ... done
Initializing the effective Hamiltonian             ... done
Setting up the integral package (SHARK)            ... done
Starting the Coulomb interaction                   ... done (   0.1 sec)
Making the grid                                    ... done (   0.2 sec)
Mapping shells                                     ... done
Starting the XC term evaluation                    ... done (   0.1 sec)
  promolecular density results
     # of electrons  =    131.994180201
     EX              =   -113.486696961
     EC              =     -4.483924838
     EX+EC           =   -117.970621799
Transforming the Hamiltonian                       ... done (   0.1 sec)
Diagonalizing the Hamiltonian                      ... done (   0.1 sec)
Back transforming the eigenvectors                 ... done (   0.1 sec)
Now organizing SCF variables                       ... done
                      ------------------
                      INITIAL GUESS DONE (   1.1 sec)
                      ------------------
             **** ENERGY FILE WAS UPDATED (orca.en.tmp) ****
Finished Guess after   3.4 sec
Maximum memory used throughout the entire GUESS-calculation: 71.9 MB
[1741401508.075003] [ohm:1434141:0]        ib_iface.c:1059 UCX  ERROR ibv_create_cq(cqe=256) failed: Connection timed out
[1741401508.078431] [ohm:1434136:0]        ib_iface.c:1059 UCX  ERROR ibv_create_cq(cqe=256) failed: Connection timed out
[1741401508.085826] [ohm:1434173:0]        ib_iface.c:1059 UCX  ERROR ibv_create_cq(cqe=256) failed: Connection timed out
[1741401508.096337] [ohm:1434162:0]        ib_iface.c:1059 UCX  ERROR ibv_create_cq(cqe=256) failed: Connection timed out
[1741401508.098031] [ohm:1434160:0]        ib_iface.c:1059 UCX  ERROR ibv_create_cq(cqe=256) failed: Connection timed out
[1741401508.100195] [ohm:1434146:0]        ib_iface.c:1059 UCX  ERROR ibv_create_cq(cqe=256) failed: Connection timed out
[1741401508.104074] [ohm:1434137:0]        ib_iface.c:1059 UCX  ERROR ibv_create_cq(cqe=256) failed: Connection timed out
[1741401508.111042] [ohm:1434138:0]        ib_iface.c:1059 UCX  ERROR ibv_create_cq(cqe=256) failed: Connection timed out
[1741401508.127820] [ohm:1434140:0]        ib_iface.c:1059 UCX  ERROR ibv_create_cq(cqe=256) failed: Connection timed out
[1741401508.127881] [ohm:1434154:0]        ib_iface.c:1059 UCX  ERROR ibv_create_cq(cqe=256) failed: Connection timed out
[1741401508.130000] [ohm:1434150:0]        ib_iface.c:1059 UCX  ERROR ibv_create_cq(cqe=256) failed: Connection timed out
[1741401508.160901] [ohm:1434161:0]        ib_iface.c:1059 UCX  ERROR ibv_create_cq(cqe=256) failed: Connection timed out
[1741401508.168067] [ohm:1434139:0]        ib_iface.c:1059 UCX  ERROR ibv_create_cq(cqe=256) failed: Connection timed out
[1741401508.214150] [ohm:1434165:0]        ib_iface.c:1059 UCX  ERROR ibv_create_cq(cqe=256) failed: Connection timed out
[1741401508.244461] [ohm:1434198:0]        ib_iface.c:1059 UCX  ERROR ibv_create_cq(cqe=256) failed: Connection timed out
[1741401508.244767] [ohm:1434148:0]        ib_iface.c:1059 UCX  ERROR ibv_create_cq(cqe=256) failed: Connection timed out
[1741401508.250543] [ohm:1434157:0]        ib_iface.c:1059 UCX  ERROR ibv_create_cq(cqe=256) failed: Connection timed out
[1741401508.256517] [ohm:1434182:0]        ib_iface.c:1059 UCX  ERROR ibv_create_cq(cqe=256) failed: Connection timed out
[1741401508.256944] [ohm:1434241:0]        ib_iface.c:1059 UCX  ERROR ibv_create_cq(cqe=256) failed: Connection timed out
[1741401508.262000] [ohm:1434178:0]        ib_iface.c:1059 UCX  ERROR ibv_create_cq(cqe=256) failed: Connection timed out
[1741401508.284276] [ohm:1434207:0]        ib_iface.c:1059 UCX  ERROR ibv_create_cq(cqe=256) failed: Connection timed out
[1741401508.299798] [ohm:1434145:0]        ib_iface.c:1059 UCX  ERROR ibv_create_cq(cqe=256) failed: Connection timed out
[1741401508.299881] [ohm:1434277:0]        ib_iface.c:1059 UCX  ERROR ibv_create_cq(cqe=256) failed: Connection timed out
[1741401508.301012] [ohm:1434248:0]        ib_iface.c:1059 UCX  ERROR ibv_create_cq(cqe=256) failed: Connection timed out
[1741401508.306720] [ohm:1434155:0]        ib_iface.c:1059 UCX  ERROR ibv_create_cq(cqe=256) failed: Connection timed out
[1741401508.307792] [ohm:1434255:0]        ib_iface.c:1059 UCX  ERROR ibv_create_cq(cqe=256) failed: Connection timed out
[1741401508.310283] [ohm:1434234:0]        ib_iface.c:1059 UCX  ERROR ibv_create_cq(cqe=256) failed: Connection timed out
[1741401508.314134] [ohm:1434262:0]        ib_iface.c:1059 UCX  ERROR ibv_create_cq(cqe=256) failed: Connection timed out
[1741401508.317443] [ohm:1434219:0]        ib_iface.c:1059 UCX  ERROR ibv_create_cq(cqe=256) failed: Connection timed out
[1741401508.324814] [ohm:1434228:0]        ib_iface.c:1059 UCX  ERROR ibv_create_cq(cqe=256) failed: Connection timed out
[1741401508.327343] [ohm:1434272:0]        ib_iface.c:1059 UCX  ERROR ibv_create_cq(cqe=256) failed: Connection timed out
[1741401508.328164] [ohm:1434259:0]        ib_iface.c:1059 UCX  ERROR ibv_create_cq(cqe=256) failed: Connection timed out
[1741401508.336545] [ohm:1434185:0]        ib_iface.c:1059 UCX  ERROR ibv_create_cq(cqe=256) failed: Connection timed out
[1741401508.343867] [ohm:1434164:0]        ib_iface.c:1059 UCX  ERROR ibv_create_cq(cqe=256) failed: Connection timed out
[1741401508.344265] [ohm:1434209:0]        ib_iface.c:1059 UCX  ERROR ibv_create_cq(cqe=256) failed: Connection timed out
[1741401508.347353] [ohm:1434257:0]        ib_iface.c:1059 UCX  ERROR ibv_create_cq(cqe=256) failed: Connection timed out
[1741401508.349106] [ohm:1434273:0]        ib_iface.c:1059 UCX  ERROR ibv_create_cq(cqe=256) failed: Connection timed out
[1741401508.351969] [ohm:1434159:0]        ib_iface.c:1059 UCX  ERROR ibv_create_cq(cqe=256) failed: Connection timed out
[1741401508.354800] [ohm:1434143:0]        ib_iface.c:1059 UCX  ERROR ibv_create_cq(cqe=256) failed: Connection timed out
[1741401508.354992] [ohm:1434264:0]        ib_iface.c:1059 UCX  ERROR ibv_create_cq(cqe=256) failed: Connection timed out
[1741401508.360905] [ohm:1434231:0]        ib_iface.c:1059 UCX  ERROR ibv_create_cq(cqe=256) failed: Connection timed out
[1741401508.369227] [ohm:1434144:0]        ib_iface.c:1059 UCX  ERROR ibv_create_cq(cqe=256) failed: Connection timed out
[1741401508.371019] [ohm:1434201:0]        ib_iface.c:1059 UCX  ERROR ibv_create_cq(cqe=256) failed: Connection timed out
[1741401508.371696] [ohm:1434252:0]        ib_iface.c:1059 UCX  ERROR ibv_create_cq(cqe=256) failed: Connection timed out
[1741401508.372916] [ohm:1434226:0]        ib_iface.c:1059 UCX  ERROR ibv_create_cq(cqe=256) failed: Connection timed out
[1741401508.373630] [ohm:1434188:0]        ib_iface.c:1059 UCX  ERROR ibv_create_cq(cqe=256) failed: Connection timed out
[1741401508.392933] [ohm:1434216:0]        ib_iface.c:1059 UCX  ERROR ibv_create_cq(cqe=256) failed: Connection timed out
[1741401508.393940] [ohm:1434193:0]        ib_iface.c:1059 UCX  ERROR ibv_create_cq(cqe=256) failed: Connection timed out
[1741401508.394377] [ohm:1434163:0]        ib_iface.c:1059 UCX  ERROR ibv_create_cq(cqe=256) failed: Connection timed out
[1741401508.402661] [ohm:1434156:0]        ib_iface.c:1059 UCX  ERROR ibv_create_cq(cqe=256) failed: Connection timed out
[1741401508.407590] [ohm:1434267:0]        ib_iface.c:1059 UCX  ERROR ibv_create_cq(cqe=256) failed: Connection timed out
[1741401508.411679] [ohm:1434191:0]        ib_iface.c:1059 UCX  ERROR ibv_create_cq(cqe=256) failed: Connection timed out
[1741401508.413148] [ohm:1434245:0]        ib_iface.c:1059 UCX  ERROR ibv_create_cq(cqe=256) failed: Connection timed out
[1741401508.413475] [ohm:1434151:0]        ib_iface.c:1059 UCX  ERROR ibv_create_cq(cqe=256) failed: Connection timed out
[1741401508.415116] [ohm:1434142:0]        ib_iface.c:1059 UCX  ERROR ibv_create_cq(cqe=256) failed: Connection timed out
[1741401508.416018] [ohm:1434237:0]        ib_iface.c:1059 UCX  ERROR ibv_create_cq(cqe=256) failed: Connection timed out
[1741401508.416515] [ohm:1434149:0]        ib_iface.c:1059 UCX  ERROR ibv_create_cq(cqe=256) failed: Connection timed out
[1741401508.416519] [ohm:1434158:0]        ib_iface.c:1059 UCX  ERROR ibv_create_cq(cqe=256) failed: Connection timed out
[1741401508.418894] [ohm:1434172:0]        ib_iface.c:1059 UCX  ERROR ibv_create_cq(cqe=256) failed: Connection timed out
[1741401508.418929] [ohm:1434223:0]        ib_iface.c:1059 UCX  ERROR ibv_create_cq(cqe=256) failed: Connection timed out
[1741401508.420420] [ohm:1434147:0]        ib_iface.c:1059 UCX  ERROR ibv_create_cq(cqe=256) failed: Connection timed out
[1741401508.420660] [ohm:1434152:0]        ib_iface.c:1059 UCX  ERROR ibv_create_cq(cqe=256) failed: Connection timed out
[1741401508.421124] [ohm:1434135:0]        ib_iface.c:1059 UCX  ERROR ibv_create_cq(cqe=256) failed: Connection timed out
[1741401508.421397] [ohm:1434153:0]        ib_iface.c:1059 UCX  ERROR ibv_create_cq(cqe=256) failed: Connection timed out


           ************************************************************
           *        Program running with 64 parallel MPI-processes    *
           *              working on a common directory               *
           ************************************************************

-------------------------------------------------------------------------------------------
                                      ORCA LEAN-SCF
                              memory conserving SCF solver
-------------------------------------------------------------------------------------------

----------------------------------------D-I-I-S--------------------------------------------
Iteration    Energy (Eh)           Delta-E    RMSDP     MaxDP     DIISErr   Damp  Time(sec)
-------------------------------------------------------------------------------------------
               ***  Starting incremental Fock matrix formation  ***
    1    -908.1060497964936076     0.00e+00  1.82e-03  3.39e-01  1.53e-01  0.700   7.7
    2    -908.3780478400640277    -2.72e-01  1.47e-03  2.45e-01  7.20e-02  0.700   6.5
                               ***Turning on AO-DIIS***
    3    -908.4953238828020403    -1.17e-01  1.07e-03  1.72e-01  2.86e-02  0.700   5.8
    4    -908.5680453712307099    -7.27e-02  2.45e-03  3.65e-01  1.90e-02  0.000   5.6
    5    -908.7320379314533056    -1.64e-01  2.62e-04  5.58e-02  6.51e-03  0.000   5.8
                              *** Initializing SOSCF ***
---------------------------------------S-O-S-C-F--------------------------------------
Iteration    Energy (Eh)           Delta-E    RMSDP     MaxDP     MaxGrad    Time(sec)
--------------------------------------------------------------------------------------
    6    -908.7333835501235626    -1.35e-03  1.30e-04  3.40e-02  3.03e-03     6.5
               *** Restarting incremental Fock matrix formation ***
    7    -908.7339893899707022    -6.06e-04  3.28e-04  4.12e-02  3.65e-03     7.3
    8    -908.7343884352562782    -3.99e-04  2.75e-04  6.73e-02  1.92e-03     6.5
    9    -908.7345609474255070    -1.73e-04  1.70e-04  2.14e-02  1.03e-03     6.6
   10    -908.7346276133976062    -6.67e-05  3.54e-05  1.14e-02  4.75e-04     6.3
   11    -908.7346441438835427    -1.65e-05  1.50e-05  1.99e-03  1.58e-04     6.2
   12    -908.7346483295186772    -4.19e-06  1.12e-05  1.54e-03  1.59e-04     6.0
   13    -908.7346505694854386    -2.24e-06  7.06e-06  9.71e-04  4.86e-05     6.0
   14    -908.7346507289994406    -1.60e-07  1.86e-06  3.15e-04  2.60e-05     5.9
   15    -908.7346508486843959    -1.20e-07  1.87e-06  3.10e-04  8.86e-06     5.6
   16    -908.7346508820078270    -3.33e-08  1.38e-06  2.31e-04  4.05e-06     5.6
   17    -908.7346509008143585    -1.88e-08  2.09e-06  4.25e-04  3.42e-06     5.3
   18    -908.7346508619548331     3.89e-08  1.63e-06  4.94e-04  1.02e-06     5.3
                  *** Gradient check signals convergence ***

               *****************************************************
               *                     SUCCESS                       *
               *           SCF CONVERGED AFTER  18 CYCLES          *
               *****************************************************

Recomputing exchange energy using gridx3       ... done (    7.839 sec)
Old exchange energy                            :    -35.015258451 Eh
New exchange energy                            :    -35.015247358 Eh
Exchange energy change after final integration :      0.000011093 Eh
Total energy after final integration           :   -908.734639769 Eh
             **** ENERGY FILE WAS UPDATED (orca.en.tmp) ****

----------------
TOTAL SCF ENERGY
----------------

Total Energy       :       -908.73463976882704 Eh          -24727.92669 eV

Components:
Nuclear Repulsion  :       1415.91260288355943 Eh           38528.94070 eV
Electronic Energy  :      -2324.64725374551426 Eh          -63256.86769 eV
One Electron Energy:      -4048.76669133185442 Eh         -110172.54273 eV
Two Electron Energy:       1724.11943758634015 Eh           46915.67504 eV

Virial components:
Potential Energy   :      -1814.07974489649041 Eh          -49363.61946 eV
Kinetic Energy     :        905.34510512766337 Eh           24635.69276 eV
Virial Ratio       :          2.00374391447191

DFT components:
N(Alpha)           :       67.000098220369 electrons
N(Beta)            :       65.000059201190 electrons
N(Total)           :      132.000157421559 electrons
E(XC)              :      -86.173448330411 Eh       

---------------
SCF CONVERGENCE
---------------

  Last Energy change         ...   -3.8860e-08  Tolerance :   1.0000e-08
  Last MAX-Density change    ...    4.9359e-04  Tolerance :   1.0000e-07
  Last RMS-Density change    ...    1.6277e-06  Tolerance :   5.0000e-09
  Last DIIS Error            ...    3.0284e-03  Tolerance :   5.0000e-07
  Last Orbital Gradient      ...    1.0164e-06  Tolerance :   1.0000e-05
  Last Orbital Rotation      ...    2.8248e-06  Tolerance :   1.0000e-05


----------------------
UHF SPIN CONTAMINATION
----------------------

Warning: in a DFT calculation there is little theoretical justification to 
         calculate <S**2> as in Hartree-Fock theory. We will do it anyways
         but you should keep in mind that the values have only limited relevance

Expectation value of <S**2>     :     2.016174
Ideal value S*(S+1) for S=1.0   :     2.000000
Deviation                       :     0.016174

----------------
ORBITAL ENERGIES
----------------
                 SPIN UP ORBITALS
  NO   OCC          E(Eh)            E(eV) 
   0   1.0000     -19.332104      -526.0533 
   1   1.0000     -19.329142      -525.9727 
   2   1.0000     -19.326639      -525.9046 
   3   1.0000     -19.323941      -525.8312 
   4   1.0000     -14.568880      -396.4394 
   5   1.0000     -14.568763      -396.4362 
   6   1.0000     -14.566410      -396.3722 
   7   1.0000     -14.560412      -396.2090 
   8   1.0000     -10.517447      -286.1943 
   9   1.0000     -10.503087      -285.8035 
  10   1.0000     -10.486358      -285.3483 
  11   1.0000     -10.480616      -285.1921 
  12   1.0000     -10.451118      -284.3894 
  13   1.0000     -10.450017      -284.3594 
  14   1.0000     -10.427967      -283.7594 
  15   1.0000     -10.424820      -283.6738 
  16   1.0000     -10.395127      -282.8658 
  17   1.0000     -10.379257      -282.4339 
  18   1.0000      -1.233812       -33.5737 
  19   1.0000      -1.211811       -32.9750 
  20   1.0000      -1.189301       -32.3625 
  21   1.0000      -1.179956       -32.1082 
  22   1.0000      -1.116011       -30.3682 
  23   1.0000      -1.093865       -29.7656 
  24   1.0000      -1.060179       -28.8489 
  25   1.0000      -1.051465       -28.6118 
  26   1.0000      -0.988634       -26.9021 
  27   1.0000      -0.962269       -26.1847 
  28   1.0000      -0.893733       -24.3197 
  29   1.0000      -0.842372       -22.9221 
  30   1.0000      -0.827346       -22.5132 
  31   1.0000      -0.804060       -21.8796 
  32   1.0000      -0.784887       -21.3579 
  33   1.0000      -0.778958       -21.1965 
  34   1.0000      -0.703316       -19.1382 
  35   1.0000      -0.699743       -19.0410 
  36   1.0000      -0.688711       -18.7408 
  37   1.0000      -0.683783       -18.6067 
  38   1.0000      -0.651179       -17.7195 
  39   1.0000      -0.640620       -17.4322 
  40   1.0000      -0.628911       -17.1135 
  41   1.0000      -0.603805       -16.4304 
  42   1.0000      -0.600349       -16.3363 
  43   1.0000      -0.590672       -16.0730 
  44   1.0000      -0.571655       -15.5555 
  45   1.0000      -0.570151       -15.5146 
  46   1.0000      -0.564974       -15.3737 
  47   1.0000      -0.562704       -15.3120 
  48   1.0000      -0.560102       -15.2412 
  49   1.0000      -0.557594       -15.1729 
  50   1.0000      -0.551781       -15.0147 
  51   1.0000      -0.534473       -14.5437 
  52   1.0000      -0.529547       -14.4097 
  53   1.0000      -0.518563       -14.1108 
  54   1.0000      -0.512672       -13.9505 
  55   1.0000      -0.506555       -13.7841 
  56   1.0000      -0.501684       -13.6515 
  57   1.0000      -0.425719       -11.5844 
  58   1.0000      -0.419179       -11.4065 
  59   1.0000      -0.410501       -11.1703 
  60   1.0000      -0.405262       -11.0278 
  61   1.0000      -0.399268       -10.8646 
  62   1.0000      -0.394877       -10.7452 
  63   1.0000      -0.387343       -10.5401 
  64   1.0000      -0.385255       -10.4833 
  65   1.0000      -0.356985        -9.7141 
  66   1.0000      -0.332254        -9.0411 
  67   0.0000       0.006130         0.1668 
  68   0.0000       0.028984         0.7887 
  69   0.0000       0.032221         0.8768 
  70   0.0000       0.034083         0.9274 
  71   0.0000       0.052774         1.4360 
  72   0.0000       0.056006         1.5240 
  73   0.0000       0.060847         1.6557 
  74   0.0000       0.062171         1.6917 
  75   0.0000       0.064414         1.7528 
  76   0.0000       0.065459         1.7812 
  77   0.0000       0.068094         1.8529 

                 SPIN DOWN ORBITALS
  NO   OCC          E(Eh)            E(eV) 
   0   1.0000     -19.327136      -525.9181 
   1   1.0000     -19.326620      -525.9041 
   2   1.0000     -19.324939      -525.8583 
   3   1.0000     -19.323826      -525.8280 
   4   1.0000     -14.568731      -396.4353 
   5   1.0000     -14.568263      -396.4226 
   6   1.0000     -14.565994      -396.3608 
   7   1.0000     -14.560197      -396.2031 
   8   1.0000     -10.517488      -286.1954 
   9   1.0000     -10.503126      -285.8046 
  10   1.0000     -10.487502      -285.3794 
  11   1.0000     -10.481717      -285.2220 
  12   1.0000     -10.450702      -284.3781 
  13   1.0000     -10.449553      -284.3468 
  14   1.0000     -10.416348      -283.4432 
  15   1.0000     -10.413662      -283.3701 
  16   1.0000     -10.395790      -282.8838 
  17   1.0000     -10.379687      -282.4456 
  18   1.0000      -1.233484       -33.5648 
  19   1.0000      -1.209712       -32.9179 
  20   1.0000      -1.184003       -32.2184 
  21   1.0000      -1.174715       -31.9656 
  22   1.0000      -1.112890       -30.2833 
  23   1.0000      -1.091524       -29.7019 
  24   1.0000      -1.057962       -28.7886 
  25   1.0000      -1.049695       -28.5636 
  26   1.0000      -0.976347       -26.5677 
  27   1.0000      -0.944498       -25.7011 
  28   1.0000      -0.886639       -24.1267 
  29   1.0000      -0.837207       -22.7816 
  30   1.0000      -0.819084       -22.2884 
  31   1.0000      -0.799268       -21.7492 
  32   1.0000      -0.782894       -21.3036 
  33   1.0000      -0.777521       -21.1574 
  34   1.0000      -0.697465       -18.9790 
  35   1.0000      -0.695620       -18.9288 
  36   1.0000      -0.682713       -18.5776 
  37   1.0000      -0.676955       -18.4209 
  38   1.0000      -0.638409       -17.3720 
  39   1.0000      -0.637103       -17.3365 
  40   1.0000      -0.623898       -16.9771 
  41   1.0000      -0.599556       -16.3147 
  42   1.0000      -0.594108       -16.1665 
  43   1.0000      -0.585903       -15.9432 
  44   1.0000      -0.565939       -15.4000 
  45   1.0000      -0.563669       -15.3382 
  46   1.0000      -0.558495       -15.1974 
  47   1.0000      -0.555140       -15.1061 
  48   1.0000      -0.554632       -15.0923 
  49   1.0000      -0.546405       -14.8684 
  50   1.0000      -0.543136       -14.7795 
  51   1.0000      -0.525107       -14.2889 
  52   1.0000      -0.520785       -14.1713 
  53   1.0000      -0.511060       -13.9067 
  54   1.0000      -0.506636       -13.7863 
  55   1.0000      -0.501533       -13.6474 
  56   1.0000      -0.491433       -13.3726 
  57   1.0000      -0.423581       -11.5262 
  58   1.0000      -0.415906       -11.3174 
  59   1.0000      -0.407910       -11.0998 
  60   1.0000      -0.391825       -10.6621 
  61   1.0000      -0.388862       -10.5815 
  62   1.0000      -0.384259       -10.4562 
  63   1.0000      -0.382074       -10.3968 
  64   1.0000      -0.379330       -10.3221 
  65   0.0000      -0.072278        -1.9668 
  66   0.0000      -0.054208        -1.4751 
  67   0.0000       0.005974         0.1626 
  68   0.0000       0.029594         0.8053 
  69   0.0000       0.031893         0.8679 
  70   0.0000       0.033975         0.9245 
  71   0.0000       0.052765         1.4358 
  72   0.0000       0.057669         1.5693 
  73   0.0000       0.062541         1.7018 
  74   0.0000       0.063031         1.7152 
  75   0.0000       0.066474         1.8089 
*Only the first 10 virtual orbitals were printed.

                    ********************************
                    * MULLIKEN POPULATION ANALYSIS *
                    ********************************

--------------------------------------------
MULLIKEN ATOMIC CHARGES AND SPIN POPULATIONS
--------------------------------------------
   0 O :   -0.700268    0.157826
   1 O :   -0.693490    0.187883
   2 O :   -0.598776    0.000871
   3 O :   -0.649009    0.004042
   4 N :   -0.288752    0.042157
   5 N :   -0.161601    0.015410
   6 N :    0.004291    0.022501
   7 N :   -0.032352    0.022756
   8 C :   -0.121580    0.423015
   9 C :   -0.056327    0.373654
  10 C :    0.775126    0.172624
  11 C :    0.338631    0.163336
  12 C :   -1.543068   -0.018225
  13 C :   -1.504341    0.024878
  14 C :    0.396605    0.103486
  15 C :    0.698694    0.160659
  16 C :    0.432933   -0.002046
  17 C :    0.314834   -0.004916
  18 H :    0.575650    0.015014
  19 H :    0.712925    0.029067
  20 H :    0.304494    0.036435
  21 H :    0.296455    0.022186
  22 H :    0.333081    0.002984
  23 H :    0.408558    0.025555
  24 H :    0.349396   -0.006876
  25 H :    0.222111    0.026897
  26 H :    0.055339    0.001277
  27 H :   -0.018324    0.000187
  28 H :    0.032775   -0.000591
  29 H :    0.115991   -0.002047
Sum of atomic charges         :    0.0000000
Sum of atomic spin populations:    2.0000000

-----------------------------------------------------
MULLIKEN REDUCED ORBITAL CHARGES AND SPIN POPULATIONS
-----------------------------------------------------
CHARGE
  0 O s       :     4.102362  s :     4.102362
      pz      :     1.485252  p :     4.569642
      px      :     1.544085
      py      :     1.540306
      dz2     :     0.003993  d :     0.026542
      dxz     :     0.008108
      dyz     :     0.007714
      dx2y2   :     0.002271
      dxy     :     0.004456
[...]
[1741401791.787109] [ohm:1436705:0]        ib_iface.c:1059 UCX  ERROR ibv_create_cq(cqe=256) failed: Connection timed out
[1741401791.787125] [ohm:1436581:0]        ib_iface.c:1059 UCX  ERROR ibv_create_cq(cqe=256) failed: Connection timed out
[1741401791.790842] [ohm:1436582:0]        ib_iface.c:1059 UCX  ERROR ibv_create_cq(cqe=256) failed: Connection timed out
[1741401791.790855] [ohm:1436601:0]        ib_iface.c:1059 UCX  ERROR ibv_create_cq(cqe=256) failed: Connection timed out
[1741401791.791320] [ohm:1436584:0]        ib_iface.c:1059 UCX  ERROR ibv_create_cq(cqe=256) failed: Connection timed out
[1741401791.791554] [ohm:1436585:0]        ib_iface.c:1059 UCX  ERROR ibv_create_cq(cqe=256) failed: Connection timed out
[1741401791.794027] [ohm:1436586:0]        ib_iface.c:1059 UCX  ERROR ibv_create_cq(cqe=256) failed: Connection timed out
[1741401791.794504] [ohm:1436620:0]        ib_iface.c:1059 UCX  ERROR ibv_create_cq(cqe=256) failed: Connection timed out
[1741401791.799541] [ohm:1436670:0]        ib_iface.c:1059 UCX  ERROR ibv_create_cq(cqe=256) failed: Connection timed out
[1741401791.799969] [ohm:1436657:0]        ib_iface.c:1059 UCX  ERROR ibv_create_cq(cqe=256) failed: Connection timed out


           ************************************************************
           *        Program running with 64 parallel MPI-processes    *
           *              working on a common directory               *
           ************************************************************

------------------------------------------------------------------------------
                              ORCA PROPERTY CALCULATIONS
------------------------------------------------------------------------------

GBWName                                 ... orca.gbw
Number of atoms                         ...     30
Number of basis functions               ...    882
Max core memory                         ...   1024 MB

Electric properties:
Dipole moment                           ... YES
Quadrupole moment                       ...  NO
Static polarizability (Dipole/Dipole)   ...  NO
Static polarizability (Dipole/Quad.)    ...  NO
Static polarizability (Quad./Quad.)     ...  NO
Static polarizability (Velocity)        ...  NO

Atomic electric properties:
Dipole moment                           ...  NO
Quadrupole moment                       ...  NO
Static polarizability                   ...  NO

Choice of electric origin               ... Center of mass
Position of electric origin             ...    -0.015213    -0.091739    -0.053460

General magnetic properties:
Magnetizability                         ...  NO

EPR properties:
g-Tensor (aka g-matrix)                 ...  NO
Zero-Field splitting spin-orbit         ...  NO
Zero-field splitting spin-spin          ...  NO
Hyperfine couplings                     ...  NO (   0 nuclei)
Quadrupole couplings                    ...  NO (   0 nuclei)
Contact density                         ...  NO (   0 nuclei)

NMR properties:
Chemical shifts                         ...  NO (   0 nuclei)
Spin-rotation constants                 ...  NO (   0 nuclei)
Spin-spin couplings                     ...  NO (   0 nuclei,    0 pairs)

Choice of magnetic origin               ... GIAO
Position of magnetic origin             ...     0.000000     0.000000     0.000000

Properties with geometric perturbations:
SCF Hessian                             ...  NO
IR spectrum                             ...  NO
VCD spectrum                            ...  NO
X-ray spectroscopy properties:
SCF XES/XAS/RIXS spectra                ...  NO


-------------
DIPOLE MOMENT
-------------

Method             : SCF
Type of density    : Electron Density
Multiplicity       :   3
Irrep              :   0
Energy             :  -908.7346397688270372 Eh
Relativity type    : 
Basis              : AO
                                X                 Y                 Z
Electronic contribution:    -10.075077635      -3.569020956       0.130179232
Nuclear contribution   :     12.054252824       4.426666845       1.070417366
                        -----------------------------------------
Total Dipole Moment    :      1.979175188       0.857645889       1.200596598
                        -----------------------------------------
Magnitude (a.u.)       :      2.468627774
Magnitude (Debye)      :      6.274753140



--------------------
Rotational spectrum 
--------------------
 
Rotational constants in cm-1:             0.022874             0.011397             0.010461 
Rotational constants in MHz :           685.759976           341.680910           313.604134 

Dipole components along the rotational axes: 
x,y,z [a.u.] :     0.592920     2.355113     0.442731 
x,y,z [Debye]:     1.507083     5.986222     1.125332 

 

-------------
DIPOLE MOMENT
-------------

Method             : TDA/CIS
Type of density    : Electron Density
Level              : Relaxed density
State              :   2
Multiplicity       :   3
Irrep              :   0
Energy             :     0.0000000000000000 Eh
Relativity type    : 
Basis              : AO
                                X                 Y                 Z
Electronic contribution:    -10.008620484      -3.562372317       0.224487878
Nuclear contribution   :     12.054252824       4.426666845       1.070417366
                        -----------------------------------------
Total Dipole Moment    :      2.045632340       0.864294528       1.294905244
                        -----------------------------------------
Magnitude (a.u.)       :      2.570680123
Magnitude (Debye)      :      6.534149594



--------------------
Rotational spectrum 
--------------------
 
Rotational constants in cm-1:             0.022874             0.011397             0.010461 
Rotational constants in MHz :           685.759976           341.680910           313.604134 

Dipole components along the rotational axes: 
x,y,z [a.u.] :     0.593909     2.466793     0.413039 
x,y,z [Debye]:     1.509598     6.270089     1.049862 

 

Dipole moment calculation done in   0.2 sec 

Maximum memory used throughout the entire PROP-calculation: 81.1 MB
[1741401794.295636] [ohm:1436917:0]        ib_iface.c:1059 UCX  ERROR ibv_create_cq(cqe=256) failed: Connection timed out
[1741401794.321721] [ohm:1436927:0]        ib_iface.c:1059 UCX  ERROR ibv_create_cq(cqe=256) failed: Connection timed out
[1741401794.335105] [ohm:1436931:0]        ib_iface.c:1059 UCX  ERROR ibv_create_cq(cqe=256) failed: Connection timed out
[1741401794.337850] [ohm:1436943:0]        ib_iface.c:1059 UCX  ERROR ibv_create_cq(cqe=256) failed: Connection timed out
[1741401794.338607] [ohm:1436922:0]        ib_iface.c:1059 UCX  ERROR ibv_create_cq(cqe=256) failed: Connection timed out
[1741401794.344651] [ohm:1436919:0]        ib_iface.c:1059 UCX  ERROR ibv_create_cq(cqe=256) failed: Connection timed out
[1741401794.345010] [ohm:1436929:0]        ib_iface.c:1059 UCX  ERROR ibv_create_cq(cqe=256) failed: Connection timed out
[1741401794.352651] [ohm:1436933:0]        ib_iface.c:1059 UCX  ERROR ibv_create_cq(cqe=256) failed: Connection timed out
[1741401794.353371] [ohm:1436921:0]        ib_iface.c:1059 UCX  ERROR ibv_create_cq(cqe=256) failed: Connection timed out
[1741401794.354494] [ohm:1436918:0]        ib_iface.c:1059 UCX  ERROR ibv_create_cq(cqe=256) failed: Connection timed out
[1741401794.357388] [ohm:1436928:0]        ib_iface.c:1059 UCX  ERROR ibv_create_cq(cqe=256) failed: Connection timed out
[1741401794.376519] [ohm:1436930:0]        ib_iface.c:1059 UCX  ERROR ibv_create_cq(cqe=256) failed: Connection timed out
[1741401794.376826] [ohm:1436935:0]        ib_iface.c:1059 UCX  ERROR ibv_create_cq(cqe=256) failed: Connection timed out
[1741401794.378915] [ohm:1436960:0]        ib_iface.c:1059 UCX  ERROR ibv_create_cq(cqe=256) failed: Connection timed out
[1741401794.379442] [ohm:1436937:0]        ib_iface.c:1059 UCX  ERROR ibv_create_cq(cqe=256) failed: Connection timed out
[1741401794.389800] [ohm:1436934:0]        ib_iface.c:1059 UCX  ERROR ibv_create_cq(cqe=256) failed: Connection timed out
[1741401794.392942] [ohm:1436920:0]        ib_iface.c:1059 UCX  ERROR ibv_create_cq(cqe=256) failed: Connection timed out
[1741401794.462455] [ohm:1437058:0]        ib_iface.c:1059 UCX  ERROR ibv_create_cq(cqe=256) failed: Connection timed out
[1741401794.473458] [ohm:1437000:0]        ib_iface.c:1059 UCX  ERROR ibv_create_cq(cqe=256) failed: Connection timed out
[1741401794.511819] [ohm:1436946:0]        ib_iface.c:1059 UCX  ERROR ibv_create_cq(cqe=256) failed: Connection timed out
[1741401794.513701] [ohm:1437043:0]        ib_iface.c:1059 UCX  ERROR ibv_create_cq(cqe=256) failed: Connection timed out
[1741401794.522130] [ohm:1436926:0]        ib_iface.c:1059 UCX  ERROR ibv_create_cq(cqe=256) failed: Connection timed out
[1741401794.522931] [ohm:1436951:0]        ib_iface.c:1059 UCX  ERROR ibv_create_cq(cqe=256) failed: Connection timed out
[1741401794.526678] [ohm:1437024:0]        ib_iface.c:1059 UCX  ERROR ibv_create_cq(cqe=256) failed: Connection timed out
[1741401794.527174] [ohm:1437040:0]        ib_iface.c:1059 UCX  ERROR ibv_create_cq(cqe=256) failed: Connection timed out
[1741401794.532140] [ohm:1437030:0]        ib_iface.c:1059 UCX  ERROR ibv_create_cq(cqe=256) failed: Connection timed out
[1741401794.537726] [ohm:1436942:0]        ib_iface.c:1059 UCX  ERROR ibv_create_cq(cqe=256) failed: Connection timed out
[1741401794.544191] [ohm:1436971:0]        ib_iface.c:1059 UCX  ERROR ibv_create_cq(cqe=256) failed: Connection timed out
[1741401794.545293] [ohm:1436923:0]        ib_iface.c:1059 UCX  ERROR ibv_create_cq(cqe=256) failed: Connection timed out
[1741401794.547185] [ohm:1436995:0]        ib_iface.c:1059 UCX  ERROR ibv_create_cq(cqe=256) failed: Connection timed out
[1741401794.548468] [ohm:1436936:0]        ib_iface.c:1059 UCX  ERROR ibv_create_cq(cqe=256) failed: Connection timed out
[1741401794.552564] [ohm:1436957:0]        ib_iface.c:1059 UCX  ERROR ibv_create_cq(cqe=256) failed: Connection timed out
[1741401794.556691] [ohm:1436940:0]        ib_iface.c:1059 UCX  ERROR ibv_create_cq(cqe=256) failed: Connection timed out
[1741401794.565375] [ohm:1436944:0]        ib_iface.c:1059 UCX  ERROR ibv_create_cq(cqe=256) failed: Connection timed out
[1741401794.566879] [ohm:1436924:0]        ib_iface.c:1059 UCX  ERROR ibv_create_cq(cqe=256) failed: Connection timed out
[1741401794.566881] [ohm:1437017:0]        ib_iface.c:1059 UCX  ERROR ibv_create_cq(cqe=256) failed: Connection timed out
[1741401794.571464] [ohm:1437012:0]        ib_iface.c:1059 UCX  ERROR ibv_create_cq(cqe=256) failed: Connection timed out
[1741401794.571877] [ohm:1436966:0]        ib_iface.c:1059 UCX  ERROR ibv_create_cq(cqe=256) failed: Connection timed out
[1741401794.572897] [ohm:1437036:0]        ib_iface.c:1059 UCX  ERROR ibv_create_cq(cqe=256) failed: Connection timed out
[1741401794.584305] [ohm:1437022:0]        ib_iface.c:1059 UCX  ERROR ibv_create_cq(cqe=256) failed: Connection timed out
[1741401794.585963] [ohm:1437052:0]        ib_iface.c:1059 UCX  ERROR ibv_create_cq(cqe=256) failed: Connection timed out
[1741401794.588982] [ohm:1437050:0]        ib_iface.c:1059 UCX  ERROR ibv_create_cq(cqe=256) failed: Connection timed out
[1741401794.590468] [ohm:1436947:0]        ib_iface.c:1059 UCX  ERROR ibv_create_cq(cqe=256) failed: Connection timed out
[1741401794.591385] [ohm:1437061:0]        ib_iface.c:1059 UCX  ERROR ibv_create_cq(cqe=256) failed: Connection timed out
[1741401794.602361] [ohm:1437004:0]        ib_iface.c:1059 UCX  ERROR ibv_create_cq(cqe=256) failed: Connection timed out
[1741401794.608588] [ohm:1436939:0]        ib_iface.c:1059 UCX  ERROR ibv_create_cq(cqe=256) failed: Connection timed out
[1741401794.609439] [ohm:1436938:0]        ib_iface.c:1059 UCX  ERROR ibv_create_cq(cqe=256) failed: Connection timed out
[1741401794.616185] [ohm:1436991:0]        ib_iface.c:1059 UCX  ERROR ibv_create_cq(cqe=256) failed: Connection timed out
[1741401794.616280] [ohm:1436945:0]        ib_iface.c:1059 UCX  ERROR ibv_create_cq(cqe=256) failed: Connection timed out
[1741401794.617669] [ohm:1436968:0]        ib_iface.c:1059 UCX  ERROR ibv_create_cq(cqe=256) failed: Connection timed out
[1741401794.619453] [ohm:1436977:0]        ib_iface.c:1059 UCX  ERROR ibv_create_cq(cqe=256) failed: Connection timed out
[1741401794.621721] [ohm:1436932:0]        ib_iface.c:1059 UCX  ERROR ibv_create_cq(cqe=256) failed: Connection timed out
[1741401794.621832] [ohm:1437006:0]        ib_iface.c:1059 UCX  ERROR ibv_create_cq(cqe=256) failed: Connection timed out
[1741401794.626744] [ohm:1437011:0]        ib_iface.c:1059 UCX  ERROR ibv_create_cq(cqe=256) failed: Connection timed out
[1741401794.627172] [ohm:1437034:0]        ib_iface.c:1059 UCX  ERROR ibv_create_cq(cqe=256) failed: Connection timed out
[1741401794.627316] [ohm:1436984:0]        ib_iface.c:1059 UCX  ERROR ibv_create_cq(cqe=256) failed: Connection timed out
[1741401794.628173] [ohm:1436979:0]        ib_iface.c:1059 UCX  ERROR ibv_create_cq(cqe=256) failed: Connection timed out
[1741401794.628341] [ohm:1436941:0]        ib_iface.c:1059 UCX  ERROR ibv_create_cq(cqe=256) failed: Connection timed out
[1741401794.629520] [ohm:1437057:0]        ib_iface.c:1059 UCX  ERROR ibv_create_cq(cqe=256) failed: Connection timed out
[1741401794.631323] [ohm:1436925:0]        ib_iface.c:1059 UCX  ERROR ibv_create_cq(cqe=256) failed: Connection timed out
[1741401794.631792] [ohm:1436973:0]        ib_iface.c:1059 UCX  ERROR ibv_create_cq(cqe=256) failed: Connection timed out
[1741401794.632714] [ohm:1436982:0]        ib_iface.c:1059 UCX  ERROR ibv_create_cq(cqe=256) failed: Connection timed out
[1741401794.634064] [ohm:1437045:0]        ib_iface.c:1059 UCX  ERROR ibv_create_cq(cqe=256) failed: Connection timed out
[1741401794.637938] [ohm:1437015:0]        ib_iface.c:1059 UCX  ERROR ibv_create_cq(cqe=256) failed: Connection timed out

--------------------------------
SUGGESTED CITATIONS FOR THIS RUN
--------------------------------

Below you find a list of papers that are relevant to this ORCA run
We neither can nor want to force you to cite these papers, but we appreciate if you do
You receive ORCA, which is the product of decades of hard work by many enthusiastic individuals, for free
The only thing we kindly ask in return is that you cite our papers,
We deeply appreciate it, if you show your appreciation for ORCA by not just citing the generic ORCA reference.

Please note that relegating all ORCA citations to the supporting information does *not* help us.
SI sections are not indexed - citations you put there will not count into any citation statistics
But we need these citations in order to attract the funding resources that allow us to do what we are doing

Therefore, if you are a happy ORCA user, please consider citing a few of the papers listed below in the main body of your paper

In addition to the list printed below, the program has created the file orca.bibtex that contains the list in bibtex format
You can import this file easily into all common literature databanks and citation aid programs


List of essential papers. We consider these as the minimum necessary citations

  1. Neese,F.
     Software update: the ORCA program system, version 5.0
     WIRES Comput. Molec. Sci., 2022 12(1)e1606
     doi.org/10.1002/wcms.1606

List of papers to cite with high priority. The work reported in these papers was absolutely
necessary for this run to complete.
Our perspective: the developers of density functionals and basis sets usually get cited in chemistry papers
Good! But without the algorithms to do something with them, the functionals or basis sets would not do anything.
Hence, in our opinion, the algorithm design and method developments papers are equally worthy of getting cited

  1. Neese,F.; Olbrich,G.
     Efficient use of the resolution of the identity approximation in time-dependent density functional calculations with hybrid density functionals
     Chem. Phys. Lett., 2002 362 170-178
     doi.org/10.1016/s0009-2614(02)01053-9
  2. Neese,F.
     An improvement of the resolution of the identity approximation for the formation of the Coulomb matrix
     J. Comp. Chem., 2003 24(14)1740-1747
     doi.org/10.1002/jcc.10318
  3. Neese,F.; Wennmohs,F.; Hansen,A.; Becker,U.
     Efficient, approximate and parallel Hartree-Fock and hybrid DFT calculations. A 'chain-of-spheres' algorithm for the Hartree-Fock exchange
     Chem. Phys., 2009 356(1-3)98-109
     doi.org/10.1016/j.chemphys.2008.10.036
  4. Petrenko,T.; Kossmann,S.; Neese,F.
     Efficient time-dependent density functional theory approximations for hybrid density functionals: Analytical gradients and parallelization
     J. Chem. Phys., 2011 134 054116
     doi.org/10.1063/1.3533441
  5. Helmich-Paris,B.; de Souza,B.; Neese,F.; Izsák,R.
     An improved chain of spheres for exchange algorithm
     J. Chem. Phys., 2021 155 104109
     doi.org/doi: 10.1063/5.0058766.
  6. Neese,F.
     The SHARK Integral Generation and Digestion System
     J. Comp. Chem., 2022  1-16
     doi.org/10.1002/jcc.26942
  7. Lehtola,S.; Steigemann,C.; Oliveira,M.; Marques,M.
     Recent developments in Libxc - A comprehensive library of functionals for density functional theory
     Software X, 2018 7 
     doi.org/10.1016/j.softx.2017.11.002
  8. Grimme,S.; Antony,J.; Ehrlich,S.; Krieg,H.
     A consistent and accurate ab initio parametrization of density functional dispersion correction (DFT-D) for the 94 elements H-Pu
     J. Chem. Phys., 2010 132 154104-XXXX
     doi.org/10.1063/1.3382344
  9. Grimme,S.; Ehrlich,S.; Goerigk,L.
     Effect of the damping function in dispersion corrected density functional theory
     J. Comput. Chem., 2011 32(7)1456-1465
     doi.org/10.1002/jcc.21759

List of suggested additional citations. These are papers that are important in the 'surrounding' of 
of this run, or papers that preceded the highly important papers. If you like your results we are grateful for a citation.

  1. Izsak,R.; Neese,F.
     An overlap fitted chain of spheres exchange method
     J. Chem. Phys., 2011 135 144105
     doi.org/10.1063/1.3646921
  2. Izsak,R.; Hansen,A.; Neese,F.
     The resolution of identity and chain of spheres approximations for the LPNO-CCSD singles Fock term
     Molec. Phys., 2012 110 2413-2417
     doi.org/10.1080/00268976.2012.687466
  3. Neese,F.
     The ORCA program system
     WIRES Comput. Molec. Sci., 2012 2(1)73-78
     doi.org/10.1002/wcms.81
  4. Izsak,R.; Neese,F.; Klopper,W.
     Robust fitting techniques in the chain of spheres approximation to the Fock exchange: The role of the complementary space
     J. Chem. Phys., 2013 139 
     doi.org/10.1063/1.4819264
  5. Neese,F.
     Software update: the ORCA program system, version 4.0
     WIRES Comput. Molec. Sci., 2018 8(1)1-6
     doi.org/10.1002/wcms.1327
  6. Neese,F.; Wennmohs,F.; Becker,U.; Riplinger,C.
     The ORCA quantum chemistry program package
     J. Chem. Phys., 2020 152 Art. No. L224108
     doi.org/10.1063/5.0004608

List of optional additional citations

  1. Neese,F.
     Approximate second-order SCF convergence for spin unrestricted wavefunctions
     Chem. Phys. Lett., 2000 325(1-3)93-98
     doi.org/10.1016/s0009-2614(00)00662-x

Timings for individual modules:

Sum of individual times          ...      296.453 sec (=   4.941 min)
Startup calculation              ...        6.327 sec (=   0.105 min)   2.1 %
SCF iterations                   ...      127.745 sec (=   2.129 min)  43.1 %
Property integrals               ...        4.159 sec (=   0.069 min)   1.4 %
Property calculations            ...        2.777 sec (=   0.046 min)   0.9 %
CIS module                       ...      155.444 sec (=   2.591 min)  52.4 %
                             ****ORCA TERMINATED NORMALLY****
TOTAL RUN TIME: 0 days 0 hours 4 minutes 58 seconds 603 msec
