
                                 *****************
                                 * O   R   C   A *
                                 *****************

                                            #,                                       
                                            ###                                      
                                            ####                                     
                                            #####                                    
                                            ######                                   
                                           ########,                                 
                                     ,,################,,,,,                         
                               ,,#################################,,                 
                          ,,##########################################,,             
                       ,#########################################, ''#####,          
                    ,#############################################,,   '####,        
                  ,##################################################,,,,####,       
                ,###########''''           ''''###############################       
              ,#####''   ,,,,##########,,,,          '''####'''          '####       
            ,##' ,,,,###########################,,,                        '##       
           ' ,,###''''                  '''############,,,                           
         ,,##''                                '''############,,,,        ,,,,,,###''
      ,#''                                            '''#######################'''  
     '                                                          ''''####''''         
             ,#######,   #######,   ,#######,      ##                                
            ,#'     '#,  ##    ##  ,#'     '#,    #''#        ,####,   ,####,        
            ##       ##  ##   ,#'  ##            #'  '#       #'       #'  '#        
            ##       ##  #######   ##           ,######,      #####,   #    #        
            '#,     ,#'  ##    ##  '#,     ,#' ,#      #,     #,   #   #,  ,#        
             '#######'   ##     ##  '#######'  #'      '#     '####' # '####'        



                #########################################################
                #                        -***-                          #
                #          Department of theory and spectroscopy        #
                #                                                       #
                #                      Frank Neese                      #
                #                                                       #
                #     Directorship, Architecture, Infrastructure        #
                #                    SHARK, DRIVERS                     #
                #        Core code/Algorithms in most modules           #
                #                                                       #
                #        Max Planck Institute fuer Kohlenforschung      #
                #                Kaiser Wilhelm Platz 1                 #
                #                 D-45470 Muelheim/Ruhr                 #
                #                      Germany                          #
                #                                                       #
                #                  All rights reserved                  #
                #                        -***-                          #
                #########################################################


                         Program Version 6.0.0  -   RELEASE  -


 With contributions from (in alphabetic order):
   Daniel Aravena         : Magnetic Suceptibility
   Michael Atanasov       : Ab Initio Ligand Field Theory (pilot matlab implementation)
   Alexander A. Auer      : GIAO ZORA, VPT2 properties, NMR spectrum
   Ute Becker             : All parallelization in ORCA, NUMFREQ, NUMCALC
   Giovanni Bistoni       : ED, misc. LED, open-shell LED, HFLD
   Martin Brehm           : Molecular dynamics
   Dmytro Bykov           : pre 5.0 version of the SCF Hessian
   Marcos Casanova-Páez   : Triplet and SCS-CIS(D). UHF-(DLPNO)-IP/EA/STEOM-CCSD. UHF-CVS-IP/STEOM-CCSD
   Vijay G. Chilkuri      : MRCI spin determinant printing, contributions to CSF-ICE
   Pauline Colinet        : FMM embedding
   Dipayan Datta          : RHF DLPNO-CCSD density
   Achintya Kumar Dutta   : EOM-CC, STEOM-CC
   Nicolas Foglia         : Exact transition moments, OPA infrastructure, MCD improvements
   Dmitry Ganyushin       : Spin-Orbit,Spin-Spin,Magnetic field MRCI
   Miquel Garcia          : C-PCM and meta-GGA Hessian, CCSD/C-PCM, Gaussian charge scheme
   Tiago L. C. Gouveia    : GS-ROHF, GS-ROCIS
   Yang Guo               : DLPNO-NEVPT2, F12-NEVPT2, CIM, IAO-localization
   Andreas Hansen         : Spin unrestricted coupled pair/coupled cluster methods
   Ingolf Harden          : AUTO-CI MPn and infrastructure 
   Benjamin Helmich-Paris : MC-RPA, TRAH-(SCF,CASSCF), AVAS, COSX integrals, SCF dyn. polar.
   Lee Huntington         : MR-EOM, pCC
   Robert Izsak           : Overlap fitted RIJCOSX, COSX-SCS-MP3, EOM
   Riya Kayal             : Wick's Theorem for AUTO-CI, AUTO-CI UHF-CCSDT
   Emily Kempfer          : AUTO-CI, RHF CISDT and CCSDT
   Christian Kollmar      : KDIIS, OOCD, Brueckner-CCSD(T), CCSD density, CASPT2, CASPT2-K, improved NEVPT2
   Axel Koslowski         : Symmetry handling
   Simone Kossmann        : Meta GGA functionals, TD-DFT gradient, OOMP2, (MP2 Hessian; deprecated post 5.0)
   Lucas Lang             : DCDCAS
   Marvin Lechner         : AUTO-CI (C++ implementation), FIC-MRCC
   Spencer Leger          : CASSCF response
   Dagmar Lenk            : GEPOL surface, SMD, ORCA-2-JSON
   Dimitrios Liakos       : Extrapolation schemes; Compound Job, initial MDCI parallelization
   Dimitrios Manganas     : Further ROCIS development; embedding schemes. LFT, Crystal Embedding
   Dimitrios Pantazis     : SARC Basis sets
   Anastasios Papadopoulos: AUTO-CI, single reference methods and gradients
   Taras Petrenko         : pre 6.0 DFT Hessian and TD-DFT gradient, (ASA, deprecated), ECA, 1-Electron XAS/XES, NRVS
   Peter Pinski           : DLPNO-MP2, DLPNO-MP2 Gradient
   Christoph Reimann      : Effective Core Potentials
   Marius Retegan         : Local ZFS, SOC
   Christoph Riplinger    : Optimizer, TS searches, QM/MM, DLPNO-CCSD(T), (RO)-DLPNO pert. Triples
   Michael Roemelt        : Original ROCIS implementation
   Masaaki Saitow         : Open-shell DLPNO-CCSD energy and density
   Barbara Sandhoefer     : DKH picture change effects
   Kantharuban Sivalingam : CASSCF convergence/infrastructure, NEVPT2 and variants, FIC-MRCI
   Bernardo de Souza      : ESD, SOC TD-DFT
   Georgi Stoychev        : AutoAux, RI-MP2 NMR, DLPNO-MP2 response, X2C
   Van Anh Tran           : RI-MP2 g-tensors
   Willem Van den Heuvel  : Paramagnetic NMR
   Zikuan Wang            : NOTCH, Electric field optimization 
   Frank Wennmohs         : Technical directorship and infrastructure
   Hang Xu                : AUTO-CI-Response properties 


 We gratefully acknowledge several colleagues who have allowed us to
 interface, adapt or use parts of their codes:
   Stefan Grimme, W. Hujo, H. Kruse, P. Pracht,  : VdW corrections, initial TS optimization,
                  C. Bannwarth, S. Ehlert,         DFT functionals, gCP, sTDA/sTD-DF
                  L. Wittmann, M. Mueller
   Ed Valeev, F. Pavosevic, A. Kumar             : LibInt (2-el integral package), F12 methods
   Garnet Chan, S. Sharma, J. Yang, R. Olivares  : DMRG
   Ulf Ekstrom                                   : XCFun DFT Library
   Mihaly Kallay                                 : mrcc  (arbitrary order and MRCC methods)
   Frank Weinhold                                : gennbo (NPA and NBO analysis)
   Simon Mueller                                 : openCOSMO-RS
   Christopher J. Cramer and Donald G. Truhlar   : smd solvation model
   Lars Goerigk                                  : TD-DFT with DH, B97 family of functionals
   V. Asgeirsson, H. Jonsson                     : NEB implementation
   FAccTs GmbH                                   : IRC, NEB, NEB-TS, DLPNO-Multilevel, CI-OPT
                                                   MM, QMMM, 2- and 3-layer-ONIOM, Crystal-QMMM,
                                                   LR-CPCM, SF, NACMEs, symmetry and pop. for TD-DFT,
                                                   nearIR, NL-DFT gradient (VV10), updates on ESD,
                                                   ML-optimized integration grids, MBIS, APM,
                                                   GOAT, DOCKER, SOLVATOR, interface openCOSMO-RS
   S Lehtola, MJT Oliveira, MAL Marques          : LibXC Library
   Liviu Ungur et al                             : ANISO software


 Your calculation uses the libint2 library for the computation of 2-el integrals
 For citations please refer to: http://libint.valeyev.net

 Your ORCA version has been built with support for libXC version: 6.2.2
 For citations please refer to: https://libxc.gitlab.io

 This ORCA versions uses:
   CBLAS   interface :  Fast vector & matrix operations
   LAPACKE interface :  Fast linear algebra routines
   SCALAPACK package :  Parallel linear algebra routines
   Shared memory     :  Shared parallel matrices
   BLAS/LAPACK       :  OpenBLAS 0.3.27  USE64BITINT DYNAMIC_ARCH NO_AFFINITY Zen SINGLE_THREADED
        Core in use  :  Zen
   Copyright (c) 2011-2014, The OpenBLAS Project


Your calculation utilizes the atom-pairwise dispersion correction
with the Becke-Johnson damping scheme (D3BJ)


Warning: RI is on but no J-basis has been assigned. Assigning Def2/J (nothing to worry about!)
================================================================================

----- Orbital basis set information -----
Your calculation utilizes the basis: def2-TZVPPD
   F. Weigend and R. Ahlrichs, Phys. Chem. Chem. Phys. 7, 3297 (2005).
   D. Rappoport and F. Furche, J. Chem. Phys. 133, 134105 (2010)
   D. Rappoport, J. Chem. Phys. 155, 124102 (2021).

----- AuxJ basis set information -----
Your calculation utilizes the auxiliary basis: def2/J
   F. Weigend, Phys. Chem. Chem. Phys. 8, 1057 (2006).

================================================================================
                                        WARNINGS
                       Please study these warnings very carefully!
================================================================================

Using LibXC functional ID 531 : wB97M-V exchange-correlation functional
[ 1]  N. Mardirossian and M. Head-Gordon.,  J. Chem. Phys. 144, 214110 (2016)
Using LibXC functional ID 531 : wB97M-V exchange-correlation functional
[ 1]  N. Mardirossian and M. Head-Gordon.,  J. Chem. Phys. 144, 214110 (2016)

WARNING: B97M-V or wB97M-V functional requested.
  ===> : libXC variant has now been activated.
         Any manually given DFX/HFX/RangeSep scaling parameters are IGNORED!

Your calculation utilizes LibXC
 by S Lehtola, C Steigemann, MJT Oliveira & MAL Marques
Please cite in your paper:
 S Lehtola, C Steigemann, MJT Oliveira & MAL Marques, SoftwareX, 7, (2018), 1.
   


WARNING: your system is open-shell and RHF/RKS was chosen
  ===> : WILL SWITCH to UHF/UKS

INFO   : Checking CIS options ...

WARNING: CIS/ROCIS methods need fully converged wavefunctions
  ===> : Setting SCFConvForced true
         You can overwrite this default with %scf ConvForced false 


================================================================================
                                       INPUT FILE
================================================================================
NAME = orca.inp
|  1> ! Engrad def2-TZVPPD wB97M-D3BJ 
|  2> %pal nprocs 8 end%pal nprocs 64 end 
|  3> %tddft Nroots 2 Iroot 1 
|  4> sf true 
|  5> end 
|  6> *xyz 0 3 
|  7> O   3.2036707 0.39413202 -0.91503961
|  8> O   -0.64275586 1.53594249 -2.31016284
|  9> O   0.40934181 -3.08527786 -0.35054718
| 10> O   -3.00951747 -1.77720217 -0.41520551
| 11> N   0.33596101 -1.43804757 1.21158367
| 12> N   -2.14965066 -0.18762261 0.96244538
| 13> N   1.54886954 -1.1574796 -0.76510883
| 14> N   -1.48550987 -0.29337797 -1.25750363
| 15> C   1.74496489 0.50196293 0.96162948
| 16> C   -0.86401006 1.6166307 0.04806946
| 17> C   0.39432328 -0.03459079 1.55253453
| 18> C   -1.06688521 0.72165966 1.22493854
| 19> C   2.48247313 1.57620135 1.64842735
| 20> C   -0.68984821 3.07308404 0.19808026
| 21> C   2.24428454 -0.04599928 -0.28921657
| 22> C   -0.97231179 0.99890639 -1.25775533
| 23> C   0.7278682 -1.96908501 0.00668895
| 24> C   -2.27659914 -0.83562111 -0.24567491
| 25> H   0.51195742 0.04013916 2.62236626
| 26> H   -1.3220507 1.30319075 2.11112286
| 27> H   3.47712773 1.73416712 1.19738886
| 28> H   1.92416888 2.51249992 1.61980587
| 29> H   2.58258578 1.34309358 2.7127036
| 30> H   -1.56783115 3.54269177 0.65584395
| 31> H   0.14096639 3.29496509 0.85606716
| 32> H   -0.52285343 3.53538343 -0.76501937
| 33> H   -0.30875752 -2.02946322 1.69458865
| 34> H   -2.70837339 -0.57251024 1.71144595
| 35> H   1.91421188 -1.56016674 -1.62173463
| 36> H   -1.59609858 -0.76434845 -2.14289059
| 37> *
| 38> 
| 39>                          ****END OF INPUT****
================================================================================

                     *******************************
                     * Energy+Gradient Calculation *
                     *******************************

---------------------------------
CARTESIAN COORDINATES (ANGSTROEM)
---------------------------------
  O      3.203671    0.394132   -0.915040
  O     -0.642756    1.535942   -2.310163
  O      0.409342   -3.085278   -0.350547
  O     -3.009517   -1.777202   -0.415206
  N      0.335961   -1.438048    1.211584
  N     -2.149651   -0.187623    0.962445
  N      1.548870   -1.157480   -0.765109
  N     -1.485510   -0.293378   -1.257504
  C      1.744965    0.501963    0.961629
  C     -0.864010    1.616631    0.048069
  C      0.394323   -0.034591    1.552535
  C     -1.066885    0.721660    1.224939
  C      2.482473    1.576201    1.648427
  C     -0.689848    3.073084    0.198080
  C      2.244285   -0.045999   -0.289217
  C     -0.972312    0.998906   -1.257755
  C      0.727868   -1.969085    0.006689
  C     -2.276599   -0.835621   -0.245675
  H      0.511957    0.040139    2.622366
  H     -1.322051    1.303191    2.111123
  H      3.477128    1.734167    1.197389
  H      1.924169    2.512500    1.619806
  H      2.582586    1.343094    2.712704
  H     -1.567831    3.542692    0.655844
  H      0.140966    3.294965    0.856067
  H     -0.522853    3.535383   -0.765019
  H     -0.308758   -2.029463    1.694589
  H     -2.708373   -0.572510    1.711446
  H      1.914212   -1.560167   -1.621735
  H     -1.596099   -0.764348   -2.142891

----------------------------
CARTESIAN COORDINATES (A.U.)
----------------------------
  NO LB      ZA    FRAG     MASS         X           Y           Z
   0 O     8.0000    0    15.999    6.054060    0.744802   -1.729174
   1 O     8.0000    0    15.999   -1.214633    2.902511   -4.365575
   2 O     8.0000    0    15.999    0.773544   -5.830330   -0.662438
   3 O     8.0000    0    15.999   -5.687164   -3.358425   -0.784625
   4 N     7.0000    0    14.007    0.634874   -2.717516    2.289561
   5 N     7.0000    0    14.007   -4.062251   -0.354555    1.818758
   6 N     7.0000    0    14.007    2.926939   -2.187319   -1.445846
   7 N     7.0000    0    14.007   -2.807207   -0.554404   -2.376337
   8 C     6.0000    0    12.011    3.297506    0.948572    1.817216
   9 C     6.0000    0    12.011   -1.632742    3.054989    0.090838
  10 C     6.0000    0    12.011    0.745163   -0.065367    2.933865
  11 C     6.0000    0    12.011   -2.016121    1.363739    2.314798
  12 C     6.0000    0    12.011    4.691194    2.978589    3.115076
  13 C     6.0000    0    12.011   -1.303624    5.807287    0.374317
  14 C     6.0000    0    12.011    4.241083   -0.086926   -0.546540
  15 C     6.0000    0    12.011   -1.837403    1.887660   -2.376813
  16 C     6.0000    0    12.011    1.375472   -3.721031    0.012640
  17 C     6.0000    0    12.011   -4.302149   -1.579095   -0.464258
  18 H     1.0000    0     1.008    0.967459    0.075852    4.955554
  19 H     1.0000    0     1.008   -2.498314    2.462674    3.989444
  20 H     1.0000    0     1.008    6.570819    3.277101    2.262737
  21 H     1.0000    0     1.008    3.636152    4.747937    3.060989
  22 H     1.0000    0     1.008    4.880380    2.538079    5.126267
  23 H     1.0000    0     1.008   -2.962771    6.694717    1.239365
  24 H     1.0000    0     1.008    0.266388    6.226582    1.617732
  25 H     1.0000    0     1.008   -0.988050    6.680906   -1.445677
  26 H     1.0000    0     1.008   -0.583467   -3.835130    3.202308
  27 H     1.0000    0     1.008   -5.118084   -1.081888    3.234164
  28 H     1.0000    0     1.008    3.617336   -2.948288   -3.064634
  29 H     1.0000    0     1.008   -3.016189   -1.444409   -4.049476

--------------------------------
INTERNAL COORDINATES (ANGSTROEM)
--------------------------------
 O      0   0   0     0.000000000000     0.00000000     0.00000000
 O      1   0   0     4.247952125173     0.00000000     0.00000000
 O      1   2   0     4.498135031550    71.73760108     0.00000000
 O      3   1   2     3.661125713063   107.54922569   340.38801771
 N      3   1   2     2.271344351397    62.96102142   279.58007298
 N      4   3   1     2.272455958479    83.44643391   314.64645668
 N      1   2   3     2.273399379178    63.00043860   359.94816205
 N      2   1   3     2.272606230552    88.12578577    13.88544537
 C      1   2   3     2.379356429508    72.04537308   292.66927753
 C      2   1   3     2.369962782200    76.51962106    75.60470065
 C      5   3   1     1.445456528859   149.89093759    37.75493268
 C      6   4   3     1.438081334729   146.91250505    44.80687193
 C      9   1   2     1.472955498754    95.38523397   242.35782044
 C     10   2   1     1.474480220861    97.11361617    99.18358656
 C      1   2   3     1.227107103163    63.63907423   323.95513181
 C      2   1   3     1.226611776727    81.01443531    45.09200543
 C      3   1   2     1.214480626480    33.18189748   289.70247874
 C      4   3   1     1.205190771346    73.06789207   343.96711492
 H     11   5   3     1.078870838810   107.79173557   193.54228646
 H     12   6   4     1.090234142254   108.02374788   176.37344290
 H     13   9   1     1.103506537024   111.41552414   346.90693780
 H     13   9   1     1.090494308499   110.95294886   108.72810950
 H     13   9   1     1.094095841980   110.12032857   224.28718112
 H     14  10   2     1.095870913424   111.78660026   119.88230074
 H     14  10   2     1.082788465257   110.78520790   237.67522597
 H     14  10   2     1.081281128961   110.48392346   359.30764393
 H      5   3   1     0.999363930055    85.64490095   185.06079144
 H      6   4   3     1.010599540177    88.49353972   248.49164756
 H      7   1   2     1.014613088494    87.31161946    98.66881528
 H      8   2   1     1.008936630690    90.56834729   254.78388355

---------------------------
INTERNAL COORDINATES (A.U.)
---------------------------
 O      0   0   0     0.000000000000     0.00000000     0.00000000
 O      1   0   0     8.027466146585     0.00000000     0.00000000
 O      1   2   0     8.500243323027    71.73760108     0.00000000
 O      3   1   2     6.918524939546   107.54922569   340.38801771
 N      3   1   2     4.292218779970    62.96102142   279.58007298
 N      4   3   1     4.294319412923    83.44643391   314.64645668
 N      1   2   3     4.296102219673    63.00043860   359.94816205
 N      2   1   3     4.294603385986    88.12578577    13.88544537
 C      1   2   3     4.496332026755    72.04537308   292.66927753
 C      2   1   3     4.478580605944    76.51962106    75.60470065
 C      5   3   1     2.731516978033   149.89093759    37.75493268
 C      6   4   3     2.717579880942   146.91250505    44.80687193
 C      9   1   2     2.783482500098    95.38523397   242.35782044
 C     10   2   1     2.786363807310    97.11361617    99.18358656
 C      1   2   3     2.318896361968    63.63907423   323.95513181
 C      2   1   3     2.317960330657    81.01443531    45.09200543
 C      3   1   2     2.295035779000    33.18189748   289.70247874
 C      4   3   1     2.277480496973    73.06789207   343.96711492
 H     11   5   3     2.038770419225   107.79173557   193.54228646
 H     12   6   4     2.060243950712   108.02374788   176.37344290
 H     13   9   1     2.085325141967   111.41552414   346.90693780
 H     13   9   1     2.060735593664   110.95294886   108.72810950
 H     13   9   1     2.067541505605   110.12032857   224.28718112
 H     14  10   2     2.070895904502   111.78660026   119.88230074
 H     14  10   2     2.046173660305   110.78520790   237.67522597
 H     14  10   2     2.043325207514   110.48392346   359.30764393
 H      5   3   1     1.888524135923    85.64490095   185.06079144
 H      6   4   3     1.909756362001    88.49353972   248.49164756
 H      7   1   2     1.917340869146    87.31161946    98.66881528
 H      8   2   1     1.906613918486    90.56834729   254.78388355

---------------------
BASIS SET INFORMATION
---------------------
There are 4 groups of distinct atoms

 Group   1 Type O   : 12s7p3d1f contracted to 6s4p3d1f pattern {621111/4111/111/1}
 Group   2 Type N   : 12s6p3d1f contracted to 6s3p3d1f pattern {621111/411/111/1}
 Group   3 Type C   : 12s6p3d1f contracted to 6s3p3d1f pattern {621111/411/111/1}
 Group   4 Type H   : 5s3p1d contracted to 3s3p1d pattern {311/111/1}

Atom   0O    basis set group =>   1
Atom   1O    basis set group =>   1
Atom   2O    basis set group =>   1
Atom   3O    basis set group =>   1
Atom   4N    basis set group =>   2
Atom   5N    basis set group =>   2
Atom   6N    basis set group =>   2
Atom   7N    basis set group =>   2
Atom   8C    basis set group =>   3
Atom   9C    basis set group =>   3
Atom  10C    basis set group =>   3
Atom  11C    basis set group =>   3
Atom  12C    basis set group =>   3
Atom  13C    basis set group =>   3
Atom  14C    basis set group =>   3
Atom  15C    basis set group =>   3
Atom  16C    basis set group =>   3
Atom  17C    basis set group =>   3
Atom  18H    basis set group =>   4
Atom  19H    basis set group =>   4
Atom  20H    basis set group =>   4
Atom  21H    basis set group =>   4
Atom  22H    basis set group =>   4
Atom  23H    basis set group =>   4
Atom  24H    basis set group =>   4
Atom  25H    basis set group =>   4
Atom  26H    basis set group =>   4
Atom  27H    basis set group =>   4
Atom  28H    basis set group =>   4
Atom  29H    basis set group =>   4
---------------------------------
AUXILIARY/J BASIS SET INFORMATION
---------------------------------
There are 4 groups of distinct atoms

 Group   1 Type O   : 12s5p4d2f1g contracted to 6s4p3d1f1g pattern {711111/2111/211/2/1}
 Group   2 Type N   : 12s5p4d2f1g contracted to 6s4p3d1f1g pattern {711111/2111/211/2/1}
 Group   3 Type C   : 12s5p4d2f1g contracted to 6s4p3d1f1g pattern {711111/2111/211/2/1}
 Group   4 Type H   : 5s2p1d contracted to 3s1p1d pattern {311/2/1}

Atom   0O    basis set group =>   1
Atom   1O    basis set group =>   1
Atom   2O    basis set group =>   1
Atom   3O    basis set group =>   1
Atom   4N    basis set group =>   2
Atom   5N    basis set group =>   2
Atom   6N    basis set group =>   2
Atom   7N    basis set group =>   2
Atom   8C    basis set group =>   3
Atom   9C    basis set group =>   3
Atom  10C    basis set group =>   3
Atom  11C    basis set group =>   3
Atom  12C    basis set group =>   3
Atom  13C    basis set group =>   3
Atom  14C    basis set group =>   3
Atom  15C    basis set group =>   3
Atom  16C    basis set group =>   3
Atom  17C    basis set group =>   3
Atom  18H    basis set group =>   4
Atom  19H    basis set group =>   4
Atom  20H    basis set group =>   4
Atom  21H    basis set group =>   4
Atom  22H    basis set group =>   4
Atom  23H    basis set group =>   4
Atom  24H    basis set group =>   4
Atom  25H    basis set group =>   4
Atom  26H    basis set group =>   4
Atom  27H    basis set group =>   4
Atom  28H    basis set group =>   4
Atom  29H    basis set group =>   4
[1739887236.671400] [ohm:134252:0]        ib_iface.c:1059 UCX  ERROR ibv_create_cq(cqe=256) failed: Connection timed out
[1739887236.673871] [ohm:134255:0]        ib_iface.c:1059 UCX  ERROR ibv_create_cq(cqe=256) failed: Connection timed out
[1739887236.678658] [ohm:134246:0]        ib_iface.c:1059 UCX  ERROR ibv_create_cq(cqe=256) failed: Connection timed out
[1739887236.689820] [ohm:134262:0]        ib_iface.c:1059 UCX  ERROR ibv_create_cq(cqe=256) failed: Connection timed out
[1739887236.689842] [ohm:134247:0]        ib_iface.c:1059 UCX  ERROR ibv_create_cq(cqe=256) failed: Connection timed out
[1739887236.708248] [ohm:134245:0]        ib_iface.c:1059 UCX  ERROR ibv_create_cq(cqe=256) failed: Connection timed out
[1739887236.744135] [ohm:134250:0]        ib_iface.c:1059 UCX  ERROR ibv_create_cq(cqe=256) failed: Connection timed out
[1739887236.755385] [ohm:134249:0]        ib_iface.c:1059 UCX  ERROR ibv_create_cq(cqe=256) failed: Connection timed out
[1739887236.757910] [ohm:134251:0]        ib_iface.c:1059 UCX  ERROR ibv_create_cq(cqe=256) failed: Connection timed out
[1739887236.764519] [ohm:134272:0]        ib_iface.c:1059 UCX  ERROR ibv_create_cq(cqe=256) failed: Connection timed out
[1739887236.765040] [ohm:134248:0]        ib_iface.c:1059 UCX  ERROR ibv_create_cq(cqe=256) failed: Connection timed out
[1739887236.772893] [ohm:134261:0]        ib_iface.c:1059 UCX  ERROR ibv_create_cq(cqe=256) failed: Connection timed out
[1739887236.773720] [ohm:134334:0]        ib_iface.c:1059 UCX  ERROR ibv_create_cq(cqe=256) failed: Connection timed out
[1739887236.776348] [ohm:134282:0]        ib_iface.c:1059 UCX  ERROR ibv_create_cq(cqe=256) failed: Connection timed out
[1739887236.782681] [ohm:134260:0]        ib_iface.c:1059 UCX  ERROR ibv_create_cq(cqe=256) failed: Connection timed out
[1739887236.787381] [ohm:134328:0]        ib_iface.c:1059 UCX  ERROR ibv_create_cq(cqe=256) failed: Connection timed out
[1739887236.795415] [ohm:134264:0]        ib_iface.c:1059 UCX  ERROR ibv_create_cq(cqe=256) failed: Connection timed out
[1739887236.796261] [ohm:134270:0]        ib_iface.c:1059 UCX  ERROR ibv_create_cq(cqe=256) failed: Connection timed out
[1739887236.799063] [ohm:134336:0]        ib_iface.c:1059 UCX  ERROR ibv_create_cq(cqe=256) failed: Connection timed out
[1739887236.852685] [ohm:134331:0]        ib_iface.c:1059 UCX  ERROR ibv_create_cq(cqe=256) failed: Connection timed out
[1739887236.863441] [ohm:134342:0]        ib_iface.c:1059 UCX  ERROR ibv_create_cq(cqe=256) failed: Connection timed out
[1739887236.867414] [ohm:134311:0]        ib_iface.c:1059 UCX  ERROR ibv_create_cq(cqe=256) failed: Connection timed out
[1739887236.871983] [ohm:134286:0]        ib_iface.c:1059 UCX  ERROR ibv_create_cq(cqe=256) failed: Connection timed out
[1739887236.898959] [ohm:134291:0]        ib_iface.c:1059 UCX  ERROR ibv_create_cq(cqe=256) failed: Connection timed out
[1739887236.902345] [ohm:134362:0]        ib_iface.c:1059 UCX  ERROR ibv_create_cq(cqe=256) failed: Connection timed out
[1739887236.902491] [ohm:134275:0]        ib_iface.c:1059 UCX  ERROR ibv_create_cq(cqe=256) failed: Connection timed out
[1739887236.905713] [ohm:134256:0]        ib_iface.c:1059 UCX  ERROR ibv_create_cq(cqe=256) failed: Connection timed out
[1739887236.905932] [ohm:134257:0]        ib_iface.c:1059 UCX  ERROR ibv_create_cq(cqe=256) failed: Connection timed out
[1739887236.914431] [ohm:134265:0]        ib_iface.c:1059 UCX  ERROR ibv_create_cq(cqe=256) failed: Connection timed out
[1739887236.914426] [ohm:134343:0]        ib_iface.c:1059 UCX  ERROR ibv_create_cq(cqe=256) failed: Connection timed out
[1739887236.925188] [ohm:134304:0]        ib_iface.c:1059 UCX  ERROR ibv_create_cq(cqe=256) failed: Connection timed out
[1739887236.929389] [ohm:134364:0]        ib_iface.c:1059 UCX  ERROR ibv_create_cq(cqe=256) failed: Connection timed out
[1739887236.930621] [ohm:134273:0]        ib_iface.c:1059 UCX  ERROR ibv_create_cq(cqe=256) failed: Connection timed out
[1739887236.935316] [ohm:134300:0]        ib_iface.c:1059 UCX  ERROR ibv_create_cq(cqe=256) failed: Connection timed out
[1739887236.938175] [ohm:134253:0]        ib_iface.c:1059 UCX  ERROR ibv_create_cq(cqe=256) failed: Connection timed out
[1739887236.939790] [ohm:134258:0]        ib_iface.c:1059 UCX  ERROR ibv_create_cq(cqe=256) failed: Connection timed out
[1739887236.941216] [ohm:134263:0]        ib_iface.c:1059 UCX  ERROR ibv_create_cq(cqe=256) failed: Connection timed out
[1739887236.941343] [ohm:134354:0]        ib_iface.c:1059 UCX  ERROR ibv_create_cq(cqe=256) failed: Connection timed out
[1739887236.941816] [ohm:134323:0]        ib_iface.c:1059 UCX  ERROR ibv_create_cq(cqe=256) failed: Connection timed out
[1739887236.955639] [ohm:134269:0]        ib_iface.c:1059 UCX  ERROR ibv_create_cq(cqe=256) failed: Connection timed out
[1739887236.962371] [ohm:134259:0]        ib_iface.c:1059 UCX  ERROR ibv_create_cq(cqe=256) failed: Connection timed out
[1739887236.970879] [ohm:134368:0]        ib_iface.c:1059 UCX  ERROR ibv_create_cq(cqe=256) failed: Connection timed out
[1739887236.973903] [ohm:134268:0]        ib_iface.c:1059 UCX  ERROR ibv_create_cq(cqe=256) failed: Connection timed out
[1739887236.979497] [ohm:134298:0]        ib_iface.c:1059 UCX  ERROR ibv_create_cq(cqe=256) failed: Connection timed out
[1739887236.981345] [ohm:134339:0]        ib_iface.c:1059 UCX  ERROR ibv_create_cq(cqe=256) failed: Connection timed out
[1739887236.987494] [ohm:134267:0]        ib_iface.c:1059 UCX  ERROR ibv_create_cq(cqe=256) failed: Connection timed out
[1739887236.987785] [ohm:134359:0]        ib_iface.c:1059 UCX  ERROR ibv_create_cq(cqe=256) failed: Connection timed out
[1739887236.988868] [ohm:134277:0]        ib_iface.c:1059 UCX  ERROR ibv_create_cq(cqe=256) failed: Connection timed out
[1739887236.992085] [ohm:134370:0]        ib_iface.c:1059 UCX  ERROR ibv_create_cq(cqe=256) failed: Connection timed out
[1739887236.997521] [ohm:134376:0]        ib_iface.c:1059 UCX  ERROR ibv_create_cq(cqe=256) failed: Connection timed out
[1739887237.000626] [ohm:134347:0]        ib_iface.c:1059 UCX  ERROR ibv_create_cq(cqe=256) failed: Connection timed out
[1739887237.000770] [ohm:134351:0]        ib_iface.c:1059 UCX  ERROR ibv_create_cq(cqe=256) failed: Connection timed out
[1739887237.001094] [ohm:134266:0]        ib_iface.c:1059 UCX  ERROR ibv_create_cq(cqe=256) failed: Connection timed out
[1739887237.002285] [ohm:134377:0]        ib_iface.c:1059 UCX  ERROR ibv_create_cq(cqe=256) failed: Connection timed out
[1739887237.003822] [ohm:134309:0]        ib_iface.c:1059 UCX  ERROR ibv_create_cq(cqe=256) failed: Connection timed out
[1739887237.008951] [ohm:134293:0]        ib_iface.c:1059 UCX  ERROR ibv_create_cq(cqe=256) failed: Connection timed out
[1739887237.011301] [ohm:134389:0]        ib_iface.c:1059 UCX  ERROR ibv_create_cq(cqe=256) failed: Connection timed out
[1739887237.011898] [ohm:134382:0]        ib_iface.c:1059 UCX  ERROR ibv_create_cq(cqe=256) failed: Connection timed out
[1739887237.012124] [ohm:134385:0]        ib_iface.c:1059 UCX  ERROR ibv_create_cq(cqe=256) failed: Connection timed out
[1739887237.012369] [ohm:134387:0]        ib_iface.c:1059 UCX  ERROR ibv_create_cq(cqe=256) failed: Connection timed out
[1739887237.012750] [ohm:134358:0]        ib_iface.c:1059 UCX  ERROR ibv_create_cq(cqe=256) failed: Connection timed out
[1739887237.012967] [ohm:134319:0]        ib_iface.c:1059 UCX  ERROR ibv_create_cq(cqe=256) failed: Connection timed out
[1739887237.014945] [ohm:134271:0]        ib_iface.c:1059 UCX  ERROR ibv_create_cq(cqe=256) failed: Connection timed out
[1739887237.016330] [ohm:134303:0]        ib_iface.c:1059 UCX  ERROR ibv_create_cq(cqe=256) failed: Connection timed out


           ************************************************************
           *        Program running with 64 parallel MPI-processes    *
           *              working on a common directory               *
           ************************************************************
------------------------------------------------------------------------------
                             ORCA STARTUP CALCULATIONS
                           -- RI-GTO INTEGRALS CHOSEN --
------------------------------------------------------------------------------
------------------------------------------------------------------------------
                   ___                                                        
                  /   \      - P O W E R E D   B Y -                         
                 /     \                                                     
                 |  |  |   _    _      __       _____    __    __             
                 |  |  |  | |  | |    /  \     |  _  \  |  |  /  |          
                  \  \/   | |  | |   /    \    | | | |  |  | /  /          
                 / \  \   | |__| |  /  /\  \   | |_| |  |  |/  /          
                |  |  |   |  __  | /  /__\  \  |    /   |      \           
                |  |  |   | |  | | |   __   |  |    \   |  |\   \          
                \     /   | |  | | |  |  |  |  | |\  \  |  | \   \       
                 \___/    |_|  |_| |__|  |__|  |_| \__\ |__|  \__/        
                                                                              
                      - O R C A' S   B I G   F R I E N D -                    
                                      &                                       
                       - I N T E G R A L  F E E D E R -                       
                                                                              
 v1 FN, 2020, v2 2021, v3 2022-2024                                           
------------------------------------------------------------------------------


----------------------
SHARK INTEGRAL PACKAGE
----------------------

Number of atoms                             ...     30
Number of basis functions                   ...    882
Number of shells                            ...    322
Maximum angular momentum                    ...      3
Integral batch strategy                     ... SHARK/LIBINT Hybrid
RI-J (if used) integral strategy            ... SPLIT-RIJ (Revised 2003 algorithm where possible)
Printlevel                                  ...      1
Contraction scheme used                     ... SEGMENTED contraction
Prescreening option                         ... SCHWARTZ
   Thresh                                   ... 2.500e-11
   Tcut                                     ... 2.500e-12
   Tpresel                                  ... 2.500e-12 
Coulomb Range Separation                    ... NOT USED
Exchange Range Separation                   ... Long Range
   Mu parameter                             ... 3.000e-01
   Scaling (regular/separated)              ... 1.500e-01 8.500e-01
Multipole approximations                    ... NOT USED
Finite Nucleus Model                        ... NOT USED
CABS basis                                  ... NOT available
Auxiliary Coulomb fitting basis             ... AVAILABLE
   # of basis functions in Aux-J            ...   1014
   # of shells in Aux-J                     ...    330
   Maximum angular momentum in Aux-J        ...      4
Auxiliary J/K fitting basis                 ... NOT available
Auxiliary Correlation fitting basis         ... NOT available
Auxiliary 'external' fitting basis          ... NOT available

Checking pre-screening integrals            ... done (  0.0 sec) Dimension = 322
Check shell pair data                       ... done (  0.0 sec)
Shell pair information
Shell pair cut-off parameter TPreSel        ...   2.5e-12
Total number of shell pairs                 ...     52003
Shell pairs after pre-screening             ...     45080
Total number of primitive shell pairs       ...    129718
Primitive shell pairs kept                  ...     84130
          la=0 lb=0:   8724 shell pairs
          la=1 lb=0:  11910 shell pairs
          la=1 lb=1:   4110 shell pairs
          la=2 lb=0:   8106 shell pairs
          la=2 lb=1:   5600 shell pairs
          la=2 lb=2:   1935 shell pairs
          la=3 lb=0:   2072 shell pairs
          la=3 lb=1:   1469 shell pairs
          la=3 lb=2:   1010 shell pairs
          la=3 lb=3:    144 shell pairs

Calculating one electron integrals          ... done (  0.2 sec)
Calculating RI/J V-Matrix + Cholesky decomp.... done (  0.1 sec)
Calculating Nuclear repulsion               ... done (  0.0 sec) ENN=   1447.398776711150 Eh

Diagonalization of the overlap matrix:
Smallest eigenvalue                        ... 5.351e-07
Time for diagonalization                   ...    0.125 sec
Threshold for overlap eigenvalues          ... 1.000e-07
Number of eigenvalues below threshold      ... 0

IMPORTANT:
Smallest eigenvalue of S below the DiffSThresh (1.000e-06) while
Thresh>1e-12 and/or TCut>1e-13! In order to avoid SCF convergence issues,
Thresh will be set to at least 1e-12 and TCut to at least 1e-13.
This can be turned off by adding %SCF DiffSThresh -1 END to the input.

Time for construction of square roots      ...    0.134 sec
Total time needed                          ...    0.274 sec

-------------------
DFT GRID GENERATION
-------------------

General Integration Accuracy     IntAcc      ... 4.388
Radial Grid Type                 RadialGrid  ... OptM3 with GC (2021)
Angular Grid (max. ang.)         AngularGrid ... 4 (Lebedev-302)
Angular grid pruning method      GridPruning ... 4 (adaptive)
Weight generation scheme         WeightScheme... mBecke (2022)
Basis function cutoff            BFCut       ... 1.0000e-11
Integration weight cutoff        WCut        ... 1.0000e-14
Partially contracted basis set               ... off
Rotationally invariant grid construction     ... off
Angular grids for H and He will be reduced by one unit
Diffuse basis detected: some atoms will have their outermost
                        angular grid increased by 1.

Total number of grid points                  ...   152066
Total number of batches                      ...     2393
Average number of points per batch           ...       63
Average number of grid points per atom       ...     5069

--------------------
COSX GRID GENERATION
--------------------

GRIDX 1
-------
General Integration Accuracy     IntAcc      ... 3.816
Radial Grid Type                 RadialGrid  ... OptM3 with GC (2021)
Angular Grid (max. ang.)         AngularGrid ... 1 (Lebedev-50)
Angular grid pruning method      GridPruning ... 4 (adaptive)
Weight generation scheme         WeightScheme... mBecke (2022)
Basis function cutoff            BFCut       ... 1.0000e-11
Integration weight cutoff        WCut        ... 1.0000e-14
Partially contracted basis set               ... on
Rotationally invariant grid construction     ... off
Angular grids for H and He will be reduced by one unit
Diffuse basis detected: some atoms will have their outermost
                        angular grid increased by 1.

Total number of grid points                  ...    19034
Total number of batches                      ...      165
Average number of points per batch           ...      115
Average number of grid points per atom       ...      634
UseSFitting                                  ... on

GRIDX 2
-------
General Integration Accuracy     IntAcc      ... 4.020
Radial Grid Type                 RadialGrid  ... OptM3 with GC (2021)
Angular Grid (max. ang.)         AngularGrid ... 2 (Lebedev-110)
Angular grid pruning method      GridPruning ... 4 (adaptive)
Weight generation scheme         WeightScheme... mBecke (2022)
Basis function cutoff            BFCut       ... 1.0000e-11
Integration weight cutoff        WCut        ... 1.0000e-14
Partially contracted basis set               ... on
Rotationally invariant grid construction     ... off
Angular grids for H and He will be reduced by one unit
Diffuse basis detected: some atoms will have their outermost
                        angular grid increased by 1.

Total number of grid points                  ...    45888
Total number of batches                      ...      374
Average number of points per batch           ...      122
Average number of grid points per atom       ...     1530
UseSFitting                                  ... on

GRIDX 3
-------
General Integration Accuracy     IntAcc      ... 4.338
Radial Grid Type                 RadialGrid  ... OptM3 with GC (2021)
Angular Grid (max. ang.)         AngularGrid ... 3 (Lebedev-194)
Angular grid pruning method      GridPruning ... 4 (adaptive)
Weight generation scheme         WeightScheme... mBecke (2022)
Basis function cutoff            BFCut       ... 1.0000e-11
Integration weight cutoff        WCut        ... 1.0000e-14
Partially contracted basis set               ... on
Rotationally invariant grid construction     ... off
Angular grids for H and He will be reduced by one unit
Diffuse basis detected: some atoms will have their outermost
                        angular grid increased by 1.

Total number of grid points                  ...   101079
Total number of batches                      ...      805
Average number of points per batch           ...      125
Average number of grid points per atom       ...     3369
UseSFitting                                  ... on
Initializing property integral containers    ... done (  0.0 sec)

SHARK setup successfully completed in   4.2 seconds

Maximum memory used throughout the entire STARTUP-calculation: 80.1 MB
[1739887243.013375] [ohm:134636:0]        ib_iface.c:1059 UCX  ERROR ibv_create_cq(cqe=256) failed: Connection timed out
[1739887243.019801] [ohm:134635:0]        ib_iface.c:1059 UCX  ERROR ibv_create_cq(cqe=256) failed: Connection timed out
[1739887243.023894] [ohm:134639:0]        ib_iface.c:1059 UCX  ERROR ibv_create_cq(cqe=256) failed: Connection timed out
[1739887243.030812] [ohm:134637:0]        ib_iface.c:1059 UCX  ERROR ibv_create_cq(cqe=256) failed: Connection timed out
[1739887243.116710] [ohm:134640:0]        ib_iface.c:1059 UCX  ERROR ibv_create_cq(cqe=256) failed: Connection timed out
[1739887243.136312] [ohm:134657:0]        ib_iface.c:1059 UCX  ERROR ibv_create_cq(cqe=256) failed: Connection timed out
[1739887243.136592] [ohm:134664:0]        ib_iface.c:1059 UCX  ERROR ibv_create_cq(cqe=256) failed: Connection timed out
[1739887243.137852] [ohm:134634:0]        ib_iface.c:1059 UCX  ERROR ibv_create_cq(cqe=256) failed: Connection timed out
[1739887243.138798] [ohm:134641:0]        ib_iface.c:1059 UCX  ERROR ibv_create_cq(cqe=256) failed: Connection timed out
[1739887243.143264] [ohm:134653:0]        ib_iface.c:1059 UCX  ERROR ibv_create_cq(cqe=256) failed: Connection timed out
[1739887243.166647] [ohm:134656:0]        ib_iface.c:1059 UCX  ERROR ibv_create_cq(cqe=256) failed: Connection timed out
[1739887243.170436] [ohm:134669:0]        ib_iface.c:1059 UCX  ERROR ibv_create_cq(cqe=256) failed: Connection timed out
[1739887243.174370] [ohm:134650:0]        ib_iface.c:1059 UCX  ERROR ibv_create_cq(cqe=256) failed: Connection timed out
[1739887243.185547] [ohm:134658:0]        ib_iface.c:1059 UCX  ERROR ibv_create_cq(cqe=256) failed: Connection timed out
[1739887243.191523] [ohm:134655:0]        ib_iface.c:1059 UCX  ERROR ibv_create_cq(cqe=256) failed: Connection timed out
[1739887243.200493] [ohm:134652:0]        ib_iface.c:1059 UCX  ERROR ibv_create_cq(cqe=256) failed: Connection timed out
[1739887243.202926] [ohm:134638:0]        ib_iface.c:1059 UCX  ERROR ibv_create_cq(cqe=256) failed: Connection timed out
[1739887243.205235] [ohm:134691:0]        ib_iface.c:1059 UCX  ERROR ibv_create_cq(cqe=256) failed: Connection timed out
[1739887243.208929] [ohm:134654:0]        ib_iface.c:1059 UCX  ERROR ibv_create_cq(cqe=256) failed: Connection timed out
[1739887243.216252] [ohm:134694:0]        ib_iface.c:1059 UCX  ERROR ibv_create_cq(cqe=256) failed: Connection timed out
[1739887243.217436] [ohm:134680:0]        ib_iface.c:1059 UCX  ERROR ibv_create_cq(cqe=256) failed: Connection timed out
[1739887243.241425] [ohm:134733:0]        ib_iface.c:1059 UCX  ERROR ibv_create_cq(cqe=256) failed: Connection timed out
[1739887243.253401] [ohm:134677:0]        ib_iface.c:1059 UCX  ERROR ibv_create_cq(cqe=256) failed: Connection timed out
[1739887243.261559] [ohm:134659:0]        ib_iface.c:1059 UCX  ERROR ibv_create_cq(cqe=256) failed: Connection timed out
[1739887243.263959] [ohm:134686:0]        ib_iface.c:1059 UCX  ERROR ibv_create_cq(cqe=256) failed: Connection timed out
[1739887243.272570] [ohm:134726:0]        ib_iface.c:1059 UCX  ERROR ibv_create_cq(cqe=256) failed: Connection timed out
[1739887243.277883] [ohm:134663:0]        ib_iface.c:1059 UCX  ERROR ibv_create_cq(cqe=256) failed: Connection timed out
[1739887243.280180] [ohm:134642:0]        ib_iface.c:1059 UCX  ERROR ibv_create_cq(cqe=256) failed: Connection timed out
[1739887243.281033] [ohm:134713:0]        ib_iface.c:1059 UCX  ERROR ibv_create_cq(cqe=256) failed: Connection timed out
[1739887243.283694] [ohm:134676:0]        ib_iface.c:1059 UCX  ERROR ibv_create_cq(cqe=256) failed: Connection timed out
[1739887243.287389] [ohm:134769:0]        ib_iface.c:1059 UCX  ERROR ibv_create_cq(cqe=256) failed: Connection timed out
[1739887243.289298] [ohm:134673:0]        ib_iface.c:1059 UCX  ERROR ibv_create_cq(cqe=256) failed: Connection timed out
[1739887243.291826] [ohm:134681:0]        ib_iface.c:1059 UCX  ERROR ibv_create_cq(cqe=256) failed: Connection timed out
[1739887243.291802] [ohm:134699:0]        ib_iface.c:1059 UCX  ERROR ibv_create_cq(cqe=256) failed: Connection timed out
[1739887243.296251] [ohm:134753:0]        ib_iface.c:1059 UCX  ERROR ibv_create_cq(cqe=256) failed: Connection timed out
[1739887243.298144] [ohm:134678:0]        ib_iface.c:1059 UCX  ERROR ibv_create_cq(cqe=256) failed: Connection timed out
[1739887243.301098] [ohm:134684:0]        ib_iface.c:1059 UCX  ERROR ibv_create_cq(cqe=256) failed: Connection timed out
[1739887243.323804] [ohm:134743:0]        ib_iface.c:1059 UCX  ERROR ibv_create_cq(cqe=256) failed: Connection timed out
[1739887243.342704] [ohm:134777:0]        ib_iface.c:1059 UCX  ERROR ibv_create_cq(cqe=256) failed: Connection timed out
[1739887243.351844] [ohm:134770:0]        ib_iface.c:1059 UCX  ERROR ibv_create_cq(cqe=256) failed: Connection timed out
[1739887243.354680] [ohm:134778:0]        ib_iface.c:1059 UCX  ERROR ibv_create_cq(cqe=256) failed: Connection timed out
[1739887243.355951] [ohm:134720:0]        ib_iface.c:1059 UCX  ERROR ibv_create_cq(cqe=256) failed: Connection timed out
[1739887243.358119] [ohm:134735:0]        ib_iface.c:1059 UCX  ERROR ibv_create_cq(cqe=256) failed: Connection timed out
[1739887243.359612] [ohm:134729:0]        ib_iface.c:1059 UCX  ERROR ibv_create_cq(cqe=256) failed: Connection timed out
[1739887243.359891] [ohm:134785:0]        ib_iface.c:1059 UCX  ERROR ibv_create_cq(cqe=256) failed: Connection timed out
[1739887243.364940] [ohm:134670:0]        ib_iface.c:1059 UCX  ERROR ibv_create_cq(cqe=256) failed: Connection timed out
[1739887243.365945] [ohm:134682:0]        ib_iface.c:1059 UCX  ERROR ibv_create_cq(cqe=256) failed: Connection timed out
[1739887243.366472] [ohm:134752:0]        ib_iface.c:1059 UCX  ERROR ibv_create_cq(cqe=256) failed: Connection timed out
[1739887243.367074] [ohm:134701:0]        ib_iface.c:1059 UCX  ERROR ibv_create_cq(cqe=256) failed: Connection timed out
[1739887243.370648] [ohm:134690:0]        ib_iface.c:1059 UCX  ERROR ibv_create_cq(cqe=256) failed: Connection timed out
[1739887243.374520] [ohm:134739:0]        ib_iface.c:1059 UCX  ERROR ibv_create_cq(cqe=256) failed: Connection timed out
[1739887243.375062] [ohm:134781:0]        ib_iface.c:1059 UCX  ERROR ibv_create_cq(cqe=256) failed: Connection timed out
[1739887243.376401] [ohm:134683:0]        ib_iface.c:1059 UCX  ERROR ibv_create_cq(cqe=256) failed: Connection timed out
[1739887243.377788] [ohm:134674:0]        ib_iface.c:1059 UCX  ERROR ibv_create_cq(cqe=256) failed: Connection timed out
[1739887243.378793] [ohm:134679:0]        ib_iface.c:1059 UCX  ERROR ibv_create_cq(cqe=256) failed: Connection timed out
[1739887243.380644] [ohm:134704:0]        ib_iface.c:1059 UCX  ERROR ibv_create_cq(cqe=256) failed: Connection timed out
[1739887243.381377] [ohm:134748:0]        ib_iface.c:1059 UCX  ERROR ibv_create_cq(cqe=256) failed: Connection timed out
[1739887243.381383] [ohm:134763:0]        ib_iface.c:1059 UCX  ERROR ibv_create_cq(cqe=256) failed: Connection timed out
[1739887243.381446] [ohm:134710:0]        ib_iface.c:1059 UCX  ERROR ibv_create_cq(cqe=256) failed: Connection timed out
[1739887243.382108] [ohm:134685:0]        ib_iface.c:1059 UCX  ERROR ibv_create_cq(cqe=256) failed: Connection timed out
[1739887243.382945] [ohm:134705:0]        ib_iface.c:1059 UCX  ERROR ibv_create_cq(cqe=256) failed: Connection timed out
[1739887243.383571] [ohm:134760:0]        ib_iface.c:1059 UCX  ERROR ibv_create_cq(cqe=256) failed: Connection timed out
[1739887243.384754] [ohm:134746:0]        ib_iface.c:1059 UCX  ERROR ibv_create_cq(cqe=256) failed: Connection timed out
[1739887243.385965] [ohm:134757:0]        ib_iface.c:1059 UCX  ERROR ibv_create_cq(cqe=256) failed: Connection timed out


           ************************************************************
           *        Program running with 64 parallel MPI-processes    *
           *              working on a common directory               *
           ************************************************************
-------------------------------------------------------------------------------
                                 ORCA GUESS
                   Start orbitals & Density for SCF / CASSCF
-------------------------------------------------------------------------------

------------
SCF SETTINGS
------------
Hamiltonian:
 Density Functional     Method          .... DFT(GTOs)
  Functional kind                       .... Exchange-Correlation
  Functional name                       .... wB97M-V exchange-correlation functional
  Functional family                     .... Hybrid MGGA
  Functional refs                              
    [ 0] N. Mardirossian and M. Head-Gordon.,  J. Chem. Phys. 144, 214110 (2016), doi: 10.1063/1.4952647
  Fraction of HF Exchange (short range) .... 0.1500
  Fraction of HF Exchange (long range)  .... 1.0000
  Range separation parameter mu         .... 0.3000
  Functional external parameters        .... 17
    Parameter  0 _cx00      =  8.500000e-01 : u^00 coefficient for exchange
    Parameter  1 _cx01      =  1.007000e+00 : u^01 coefficient for exchange
    Parameter  2 _cx10      =  2.590000e-01 : u^10 coefficient for exchange
    Parameter  3 _css00     =  4.430000e-01 : u^00 coefficient for same-spin correlation
    Parameter  4 _css04     = -1.437000e+00 : u^04 coefficient for same-spin correlation
    Parameter  5 _css10     = -4.535000e+00 : u^10 coefficient for same-spin correlation
    Parameter  6 _css20     = -3.390000e+00 : u^20 coefficient for same-spin correlation
    Parameter  7 _css43     =  4.278000e+00 : u^43 coefficient for same-spin correlation
    Parameter  8 _cos00     =  1.000000e+00 : u^00 coefficient for opposite-spin correlation
    Parameter  9 _cos10     =  1.358000e+00 : u^10 coefficient for opposite-spin correlation
    Parameter 10 _cos20     =  2.924000e+00 : u^20 coefficient for opposite-spin correlation
    Parameter 11 _cos21     = -8.812000e+00 : u^21 coefficient for opposite-spin correlation
    Parameter 12 _cos60     = -1.390000e+00 : u^60 coefficient for opposite-spin correlation
    Parameter 13 _cos61     =  9.142000e+00 : u^61 coefficient for opposite-spin correlation
    Parameter 14 _alpha     =  1.000000e+00 : fraction of HF exchange
    Parameter 15 _beta      = -8.500000e-01 : fraction of short-range exchange
    Parameter 16 _omega     =  3.000000e-01 : range-separation constant
 Long-range corrected/Screened/Range-Separated Hybrid DFT is turned on
   Amount of maximum screened exact exchange              ....  0.850000
   Range separation parameter mu (erf(mu*r12)/r12)        ....  0.300000
 RI-approximation to the Coulomb term is turned on
   Number of AuxJ basis functions       .... 1014
   RIJ-COSX (HFX calculated with COS-X)).... on


General Settings:
 Integral files         IntName         .... orca
 Hartree-Fock type      HFTyp           .... UHF
 Total Charge           Charge          ....    0
 Multiplicity           Mult            ....    3
 Number of Electrons    NEL             ....  132
 Basis Dimension        Dim             ....  882
 Nuclear Repulsion      ENuc            ....   1447.3987767111 Eh

Convergence Acceleration:
 AO-DIIS                CNVDIIS         .... on
   Start iteration      DIISMaxIt       ....    12
   Startup error        DIISStart       ....  0.200000
   # of expansion vecs  DIISMaxEq       ....     5
   Bias factor          DIISBfac        ....   1.050
   Max. coefficient     DIISMaxC        ....  10.000
 MO-DIIS                CNVKDIIS        .... off
 Trust-Rad. Augm. Hess. CNVTRAH         .... auto
   Auto Start mean grad. ratio tolernc. ....  1.125000
   Auto Start start iteration           ....    50
   Auto Start num. interpolation iter.  ....    10
   Max. Number of Micro iterations      ....    24
   Max. Number of Macro iterations      .... Maxiter - #DIIS iter
   Number of Davidson start vectors     ....     2
   Converg. threshold    (grad. norm)   ....   1.000e-05
   Grad. Scal. Fac. for Micro threshold ....   0.100
   Minimum threshold for Micro iter.    ....   1.000e-02
   NR start threshold (gradient norm)   ....   1.000e-04
   Initial trust radius                 ....   0.400
   Minimum AH scaling param. (alpha)    ....   1.000
   Maximum AH scaling param. (alpha)    .... 1000.000
   Quad. conv. algorithm                .... NR
   White noise on init. David. guess    .... on
   Maximum white noise                  ....   0.010
   Pseudo random numbers                .... off
   Inactive MOs                         .... canonical
   Orbital update algorithm             .... Taylor
   Preconditioner                       .... Diag
   Full preconditioner red. dimension   ....   250
 SOSCF                  CNVSOSCF        .... on
   Start iteration      SOSCFMaxIt      ....   150
   Startup grad/error   SOSCFStart      ....  0.003300
   Hessian update       SOSCFHessUp     .... L-BFGS
 Level Shifting         CNVShift        .... on
   Level shift para.    LevelShift      ....    0.2500
   Turn off err/grad.   ShiftErr        ....    0.0010
 Zerner damping         CNVZerner       .... off
 Static damping         CNVDamp         .... on
   Fraction old density DampFac         ....    0.7000
   Max. Damping (<1)    DampMax         ....    0.9800
   Min. Damping (>=0)   DampMin         ....    0.0000
   Turn off err/grad.   DampErr         ....    0.1000

SCF Procedure:
 Maximum # iterations   MaxIter         ....   125
 SCF integral mode      SCFMode         .... Direct
   Integral package                     .... SHARK and LIBINT hybrid scheme
 Reset frequency        DirectResetFreq ....    20
 Integral Threshold     Thresh          ....  1.000e-12 Eh
 Primitive CutOff       TCut            ....  1.000e-13 Eh

Convergence Tolerance:
 Convergence Check Mode ConvCheckMode   .... Total+1el-Energy
 Convergence forced     ConvForced      .... 1
 Energy Change          TolE            ....  1.000e-08 Eh
 1-El. energy change                    ....  1.000e-05 Eh
 Orbital Gradient       TolG            ....  1.000e-05
 Orbital Rotation angle TolX            ....  1.000e-05
 DIIS Error             TolErr          ....  5.000e-07

------------------------------
INITIAL GUESS: MODEL POTENTIAL
------------------------------
Loading Hartree-Fock densities                     ... done
Calculating cut-offs                               ... done
Initializing the effective Hamiltonian             ... done
Setting up the integral package (SHARK)            ... done
Starting the Coulomb interaction                   ... done (   0.1 sec)
Making the grid                                    ... done (   0.2 sec)
Mapping shells                                     ... done
Starting the XC term evaluation                    ... done (   0.1 sec)
  promolecular density results
     # of electrons  =    131.999724140
     EX              =   -113.524335480
     EC              =     -4.487232300
     EX+EC           =   -118.011567780
Transforming the Hamiltonian                       ... done (   0.1 sec)
Diagonalizing the Hamiltonian                      ... done (   0.1 sec)
Back transforming the eigenvectors                 ... done (   0.1 sec)
Now organizing SCF variables                       ... done
                      ------------------
                      INITIAL GUESS DONE (   1.1 sec)
                      ------------------
             **** ENERGY FILE WAS UPDATED (orca.en.tmp) ****
Finished Guess after   3.4 sec
Maximum memory used throughout the entire GUESS-calculation: 72.5 MB
[1739887247.190622] [ohm:134999:0]        ib_iface.c:1059 UCX  ERROR ibv_create_cq(cqe=256) failed: Connection timed out
[1739887247.191995] [ohm:134998:0]        ib_iface.c:1059 UCX  ERROR ibv_create_cq(cqe=256) failed: Connection timed out
[1739887247.208617] [ohm:135000:0]        ib_iface.c:1059 UCX  ERROR ibv_create_cq(cqe=256) failed: Connection timed out
[1739887247.210823] [ohm:134996:0]        ib_iface.c:1059 UCX  ERROR ibv_create_cq(cqe=256) failed: Connection timed out
[1739887247.213657] [ohm:135001:0]        ib_iface.c:1059 UCX  ERROR ibv_create_cq(cqe=256) failed: Connection timed out
[1739887247.215662] [ohm:135004:0]        ib_iface.c:1059 UCX  ERROR ibv_create_cq(cqe=256) failed: Connection timed out
[1739887247.227101] [ohm:134997:0]        ib_iface.c:1059 UCX  ERROR ibv_create_cq(cqe=256) failed: Connection timed out
[1739887247.263223] [ohm:135005:0]        ib_iface.c:1059 UCX  ERROR ibv_create_cq(cqe=256) failed: Connection timed out
[1739887247.268673] [ohm:135045:0]        ib_iface.c:1059 UCX  ERROR ibv_create_cq(cqe=256) failed: Connection timed out
[1739887247.275311] [ohm:135128:0]        ib_iface.c:1059 UCX  ERROR ibv_create_cq(cqe=256) failed: Connection timed out
[1739887247.275542] [ohm:135021:0]        ib_iface.c:1059 UCX  ERROR ibv_create_cq(cqe=256) failed: Connection timed out
[1739887247.276468] [ohm:135008:0]        ib_iface.c:1059 UCX  ERROR ibv_create_cq(cqe=256) failed: Connection timed out
[1739887247.280054] [ohm:135006:0]        ib_iface.c:1059 UCX  ERROR ibv_create_cq(cqe=256) failed: Connection timed out
[1739887247.280128] [ohm:135003:0]        ib_iface.c:1059 UCX  ERROR ibv_create_cq(cqe=256) failed: Connection timed out
[1739887247.291593] [ohm:135009:0]        ib_iface.c:1059 UCX  ERROR ibv_create_cq(cqe=256) failed: Connection timed out
[1739887247.294548] [ohm:135019:0]        ib_iface.c:1059 UCX  ERROR ibv_create_cq(cqe=256) failed: Connection timed out
[1739887247.313036] [ohm:135060:0]        ib_iface.c:1059 UCX  ERROR ibv_create_cq(cqe=256) failed: Connection timed out
[1739887247.313207] [ohm:135017:0]        ib_iface.c:1059 UCX  ERROR ibv_create_cq(cqe=256) failed: Connection timed out
[1739887247.314216] [ohm:135094:0]        ib_iface.c:1059 UCX  ERROR ibv_create_cq(cqe=256) failed: Connection timed out
[1739887247.317076] [ohm:135024:0]        ib_iface.c:1059 UCX  ERROR ibv_create_cq(cqe=256) failed: Connection timed out
[1739887247.339696] [ohm:135083:0]        ib_iface.c:1059 UCX  ERROR ibv_create_cq(cqe=256) failed: Connection timed out
[1739887247.354912] [ohm:135068:0]        ib_iface.c:1059 UCX  ERROR ibv_create_cq(cqe=256) failed: Connection timed out
[1739887247.357979] [ohm:135125:0]        ib_iface.c:1059 UCX  ERROR ibv_create_cq(cqe=256) failed: Connection timed out
[1739887247.360739] [ohm:135107:0]        ib_iface.c:1059 UCX  ERROR ibv_create_cq(cqe=256) failed: Connection timed out
[1739887247.373018] [ohm:135099:0]        ib_iface.c:1059 UCX  ERROR ibv_create_cq(cqe=256) failed: Connection timed out
[1739887247.379121] [ohm:135023:0]        ib_iface.c:1059 UCX  ERROR ibv_create_cq(cqe=256) failed: Connection timed out
[1739887247.384021] [ohm:135135:0]        ib_iface.c:1059 UCX  ERROR ibv_create_cq(cqe=256) failed: Connection timed out
[1739887247.400409] [ohm:135015:0]        ib_iface.c:1059 UCX  ERROR ibv_create_cq(cqe=256) failed: Connection timed out
[1739887247.403130] [ohm:135086:0]        ib_iface.c:1059 UCX  ERROR ibv_create_cq(cqe=256) failed: Connection timed out
[1739887247.429210] [ohm:135027:0]        ib_iface.c:1059 UCX  ERROR ibv_create_cq(cqe=256) failed: Connection timed out
[1739887247.432211] [ohm:135053:0]        ib_iface.c:1059 UCX  ERROR ibv_create_cq(cqe=256) failed: Connection timed out
[1739887247.441232] [ohm:135002:0]        ib_iface.c:1059 UCX  ERROR ibv_create_cq(cqe=256) failed: Connection timed out
[1739887247.450437] [ohm:135020:0]        ib_iface.c:1059 UCX  ERROR ibv_create_cq(cqe=256) failed: Connection timed out
[1739887247.450944] [ohm:135088:0]        ib_iface.c:1059 UCX  ERROR ibv_create_cq(cqe=256) failed: Connection timed out
[1739887247.450982] [ohm:135035:0]        ib_iface.c:1059 UCX  ERROR ibv_create_cq(cqe=256) failed: Connection timed out
[1739887247.457032] [ohm:135041:0]        ib_iface.c:1059 UCX  ERROR ibv_create_cq(cqe=256) failed: Connection timed out
[1739887247.458230] [ohm:135120:0]        ib_iface.c:1059 UCX  ERROR ibv_create_cq(cqe=256) failed: Connection timed out
[1739887247.464971] [ohm:135014:0]        ib_iface.c:1059 UCX  ERROR ibv_create_cq(cqe=256) failed: Connection timed out
[1739887247.468037] [ohm:135114:0]        ib_iface.c:1059 UCX  ERROR ibv_create_cq(cqe=256) failed: Connection timed out
[1739887247.468696] [ohm:135076:0]        ib_iface.c:1059 UCX  ERROR ibv_create_cq(cqe=256) failed: Connection timed out
[1739887247.469482] [ohm:135013:0]        ib_iface.c:1059 UCX  ERROR ibv_create_cq(cqe=256) failed: Connection timed out
[1739887247.471776] [ohm:135031:0]        ib_iface.c:1059 UCX  ERROR ibv_create_cq(cqe=256) failed: Connection timed out
[1739887247.472830] [ohm:135012:0]        ib_iface.c:1059 UCX  ERROR ibv_create_cq(cqe=256) failed: Connection timed out
[1739887247.483766] [ohm:135037:0]        ib_iface.c:1059 UCX  ERROR ibv_create_cq(cqe=256) failed: Connection timed out
[1739887247.484754] [ohm:135069:0]        ib_iface.c:1059 UCX  ERROR ibv_create_cq(cqe=256) failed: Connection timed out
[1739887247.487740] [ohm:135011:0]        ib_iface.c:1059 UCX  ERROR ibv_create_cq(cqe=256) failed: Connection timed out
[1739887247.490224] [ohm:135007:0]        ib_iface.c:1059 UCX  ERROR ibv_create_cq(cqe=256) failed: Connection timed out
[1739887247.491216] [ohm:135112:0]        ib_iface.c:1059 UCX  ERROR ibv_create_cq(cqe=256) failed: Connection timed out
[1739887247.497065] [ohm:135079:0]        ib_iface.c:1059 UCX  ERROR ibv_create_cq(cqe=256) failed: Connection timed out
[1739887247.497573] [ohm:135141:0]        ib_iface.c:1059 UCX  ERROR ibv_create_cq(cqe=256) failed: Connection timed out
[1739887247.499351] [ohm:135132:0]        ib_iface.c:1059 UCX  ERROR ibv_create_cq(cqe=256) failed: Connection timed out
[1739887247.499703] [ohm:135025:0]        ib_iface.c:1059 UCX  ERROR ibv_create_cq(cqe=256) failed: Connection timed out
[1739887247.501585] [ohm:135022:0]        ib_iface.c:1059 UCX  ERROR ibv_create_cq(cqe=256) failed: Connection timed out
[1739887247.504969] [ohm:135010:0]        ib_iface.c:1059 UCX  ERROR ibv_create_cq(cqe=256) failed: Connection timed out
[1739887247.505676] [ohm:135103:0]        ib_iface.c:1059 UCX  ERROR ibv_create_cq(cqe=256) failed: Connection timed out
[1739887247.506679] [ohm:135057:0]        ib_iface.c:1059 UCX  ERROR ibv_create_cq(cqe=256) failed: Connection timed out
[1739887247.507422] [ohm:135090:0]        ib_iface.c:1059 UCX  ERROR ibv_create_cq(cqe=256) failed: Connection timed out
[1739887247.508788] [ohm:135018:0]        ib_iface.c:1059 UCX  ERROR ibv_create_cq(cqe=256) failed: Connection timed out
[1739887247.509023] [ohm:135063:0]        ib_iface.c:1059 UCX  ERROR ibv_create_cq(cqe=256) failed: Connection timed out
[1739887247.509424] [ohm:135109:0]        ib_iface.c:1059 UCX  ERROR ibv_create_cq(cqe=256) failed: Connection timed out
[1739887247.510433] [ohm:135050:0]        ib_iface.c:1059 UCX  ERROR ibv_create_cq(cqe=256) failed: Connection timed out
[1739887247.511099] [ohm:135118:0]        ib_iface.c:1059 UCX  ERROR ibv_create_cq(cqe=256) failed: Connection timed out
[1739887247.511334] [ohm:135138:0]        ib_iface.c:1059 UCX  ERROR ibv_create_cq(cqe=256) failed: Connection timed out
[1739887247.511401] [ohm:135016:0]        ib_iface.c:1059 UCX  ERROR ibv_create_cq(cqe=256) failed: Connection timed out


           ************************************************************
           *        Program running with 64 parallel MPI-processes    *
           *              working on a common directory               *
           ************************************************************

-------------------------------------------------------------------------------------------
                                      ORCA LEAN-SCF
                              memory conserving SCF solver
-------------------------------------------------------------------------------------------

----------------------------------------D-I-I-S--------------------------------------------
Iteration    Energy (Eh)           Delta-E    RMSDP     MaxDP     DIISErr   Damp  Time(sec)
-------------------------------------------------------------------------------------------
               ***  Starting incremental Fock matrix formation  ***
    1    -908.1359778870457831     0.00e+00  1.68e-03  2.98e-01  1.47e-01  0.700   7.9
    2    -908.4048557362946212    -2.69e-01  1.32e-03  2.20e-01  7.01e-02  0.700   6.6
                               ***Turning on AO-DIIS***
    3    -908.5228434809739611    -1.18e-01  9.38e-04  1.36e-01  2.97e-02  0.700   5.8
    4    -908.5956698898264676    -7.28e-02  2.23e-03  2.91e-01  1.91e-02  0.000   5.7
    5    -908.7597412006882678    -1.64e-01  3.27e-04  7.42e-02  5.51e-03  0.000   5.8
                              *** Initializing SOSCF ***
---------------------------------------S-O-S-C-F--------------------------------------
Iteration    Energy (Eh)           Delta-E    RMSDP     MaxDP     MaxGrad    Time(sec)
--------------------------------------------------------------------------------------
    6    -908.7611869624836345    -1.45e-03  1.50e-04  4.35e-02  3.08e-03     6.6
               *** Restarting incremental Fock matrix formation ***
    7    -908.7618619167881207    -6.75e-04  2.43e-04  2.87e-02  4.96e-03     7.5
    8    -908.7623061509391391    -4.44e-04  2.64e-04  6.10e-02  2.68e-03     6.7
    9    -908.7624616675764173    -1.56e-04  1.30e-04  1.28e-02  1.08e-03     6.8
   10    -908.7625488922938075    -8.72e-05  4.22e-05  1.29e-02  4.25e-04     6.5
   11    -908.7625603376225172    -1.14e-05  8.78e-06  1.61e-03  1.49e-04     6.2
   12    -908.7625629293013390    -2.59e-06  6.06e-06  7.22e-04  1.69e-04     6.1
   13    -908.7625643216917979    -1.39e-06  4.95e-06  9.68e-04  4.16e-05     6.0
   14    -908.7625644840125005    -1.62e-07  1.37e-06  3.10e-04  2.87e-05     5.9
   15    -908.7625645457299015    -6.17e-08  1.74e-06  2.52e-04  1.89e-05     5.6
   16    -908.7625645849041121    -3.92e-08  8.72e-07  1.57e-04  4.92e-06     5.5
   17    -908.7625645872087716    -2.30e-09  1.30e-06  2.14e-04  2.55e-06     5.3
                 **** Energy Check signals convergence ****

               *****************************************************
               *                     SUCCESS                       *
               *           SCF CONVERGED AFTER  17 CYCLES          *
               *****************************************************

Recomputing exchange energy using gridx3       ... done (    7.918 sec)
Old exchange energy                            :    -35.032861019 Eh
New exchange energy                            :    -35.032858841 Eh
Exchange energy change after final integration :      0.000002178 Eh
Total energy after final integration           :   -908.762562409 Eh
             **** ENERGY FILE WAS UPDATED (orca.en.tmp) ****

----------------
TOTAL SCF ENERGY
----------------

Total Energy       :       -908.76256240920964 Eh          -24728.68651 eV

Components:
Nuclear Repulsion  :       1447.39877671114959 Eh           39385.72305 eV
Electronic Energy  :      -2356.16134129835791 Eh          -64114.40961 eV
One Electron Energy:      -4112.23946998927386 Eh         -111899.72485 eV
Two Electron Energy:       1756.07812869091572 Eh           47785.31524 eV

Virial components:
Potential Energy   :      -1814.36590899027306 Eh          -49371.40638 eV
Kinetic Energy     :        905.60334658106342 Eh           24642.71987 eV
Virial Ratio       :          2.00348852048755

DFT components:
N(Alpha)           :       66.999913509757 electrons
N(Beta)            :       64.999910676490 electrons
N(Total)           :      131.999824186247 electrons
E(XC)              :      -86.234946717061 Eh       

---------------
SCF CONVERGENCE
---------------

  Last Energy change         ...    2.3047e-09  Tolerance :   1.0000e-08
  Last MAX-Density change    ...    2.1366e-04  Tolerance :   1.0000e-07
  Last RMS-Density change    ...    1.2966e-06  Tolerance :   5.0000e-09
  Last DIIS Error            ...    3.0782e-03  Tolerance :   5.0000e-07
  Last Orbital Gradient      ...    2.5546e-06  Tolerance :   1.0000e-05
  Last Orbital Rotation      ...    1.6469e-05  Tolerance :   1.0000e-05


----------------------
UHF SPIN CONTAMINATION
----------------------

Warning: in a DFT calculation there is little theoretical justification to 
         calculate <S**2> as in Hartree-Fock theory. We will do it anyways
         but you should keep in mind that the values have only limited relevance

Expectation value of <S**2>     :     2.015778
Ideal value S*(S+1) for S=1.0   :     2.000000
Deviation                       :     0.015778

----------------
ORBITAL ENERGIES
----------------
                 SPIN UP ORBITALS
  NO   OCC          E(Eh)            E(eV) 
   0   1.0000     -19.332987      -526.0773 
   1   1.0000     -19.331890      -526.0475 
   2   1.0000     -19.320164      -525.7284 
   3   1.0000     -19.313976      -525.5600 
   4   1.0000     -14.564935      -396.3320 
   5   1.0000     -14.560284      -396.2055 
   6   1.0000     -14.558530      -396.1577 
   7   1.0000     -14.557403      -396.1271 
   8   1.0000     -10.503772      -285.8222 
   9   1.0000     -10.500730      -285.7394 
  10   1.0000     -10.479907      -285.1728 
  11   1.0000     -10.478745      -285.1411 
  12   1.0000     -10.449713      -284.3512 
  13   1.0000     -10.448391      -284.3152 
  14   1.0000     -10.425065      -283.6804 
  15   1.0000     -10.414501      -283.3930 
  16   1.0000     -10.375905      -282.3427 
  17   1.0000     -10.372899      -282.2609 
  18   1.0000      -1.219682       -33.1892 
  19   1.0000      -1.211812       -32.9751 
  20   1.0000      -1.191927       -32.4340 
  21   1.0000      -1.189416       -32.3657 
  22   1.0000      -1.115920       -30.3657 
  23   1.0000      -1.094977       -29.7958 
  24   1.0000      -1.063806       -28.9476 
  25   1.0000      -1.053097       -28.6562 
  26   1.0000      -0.975764       -26.5519 
  27   1.0000      -0.953355       -25.9421 
  28   1.0000      -0.883484       -24.0408 
  29   1.0000      -0.840136       -22.8613 
  30   1.0000      -0.829155       -22.5625 
  31   1.0000      -0.804211       -21.8837 
  32   1.0000      -0.783635       -21.3238 
  33   1.0000      -0.776241       -21.1226 
  34   1.0000      -0.699301       -19.0289 
  35   1.0000      -0.691747       -18.8234 
  36   1.0000      -0.684110       -18.6156 
  37   1.0000      -0.662591       -18.0300 
  38   1.0000      -0.651226       -17.7208 
  39   1.0000      -0.646680       -17.5970 
  40   1.0000      -0.617064       -16.7912 
  41   1.0000      -0.603303       -16.4167 
  42   1.0000      -0.589423       -16.0390 
  43   1.0000      -0.583175       -15.8690 
  44   1.0000      -0.580842       -15.8055 
  45   1.0000      -0.569333       -15.4923 
  46   1.0000      -0.564520       -15.3614 
  47   1.0000      -0.557235       -15.1631 
  48   1.0000      -0.555644       -15.1198 
  49   1.0000      -0.549822       -14.9614 
  50   1.0000      -0.545236       -14.8366 
  51   1.0000      -0.541801       -14.7431 
  52   1.0000      -0.531769       -14.4702 
  53   1.0000      -0.525493       -14.2994 
  54   1.0000      -0.513705       -13.9786 
  55   1.0000      -0.507142       -13.8000 
  56   1.0000      -0.489926       -13.3316 
  57   1.0000      -0.420451       -11.4411 
  58   1.0000      -0.416345       -11.3293 
  59   1.0000      -0.408247       -11.1090 
  60   1.0000      -0.406435       -11.0596 
  61   1.0000      -0.394795       -10.7429 
  62   1.0000      -0.392181       -10.6718 
  63   1.0000      -0.387523       -10.5450 
  64   1.0000      -0.382713       -10.4142 
  65   1.0000      -0.340086        -9.2542 
  66   1.0000      -0.328736        -8.9454 
  67   0.0000       0.005910         0.1608 
  68   0.0000       0.028364         0.7718 
  69   0.0000       0.031462         0.8561 
  70   0.0000       0.039453         1.0736 
  71   0.0000       0.055412         1.5078 
  72   0.0000       0.057333         1.5601 
  73   0.0000       0.059322         1.6142 
  74   0.0000       0.063464         1.7269 
  75   0.0000       0.068208         1.8560 
  76   0.0000       0.071128         1.9355 
  77   0.0000       0.085952         2.3389 

                 SPIN DOWN ORBITALS
  NO   OCC          E(Eh)            E(eV) 
   0   1.0000     -19.328310      -525.9500 
   1   1.0000     -19.327098      -525.9171 
   2   1.0000     -19.319949      -525.7225 
   3   1.0000     -19.313754      -525.5540 
   4   1.0000     -14.564398      -396.3174 
   5   1.0000     -14.559958      -396.1966 
   6   1.0000     -14.558159      -396.1477 
   7   1.0000     -14.556961      -396.1151 
   8   1.0000     -10.503799      -285.8229 
   9   1.0000     -10.500756      -285.7401 
  10   1.0000     -10.481007      -285.2027 
  11   1.0000     -10.479805      -285.1700 
  12   1.0000     -10.449347      -284.3412 
  13   1.0000     -10.448244      -284.3112 
  14   1.0000     -10.413567      -283.3676 
  15   1.0000     -10.403133      -283.0836 
  16   1.0000     -10.376490      -282.3587 
  17   1.0000     -10.373468      -282.2764 
  18   1.0000      -1.218312       -33.1520 
  19   1.0000      -1.209952       -32.9245 
  20   1.0000      -1.185976       -32.2720 
  21   1.0000      -1.184066       -32.2201 
  22   1.0000      -1.113391       -30.2969 
  23   1.0000      -1.092636       -29.7321 
  24   1.0000      -1.061979       -28.8979 
  25   1.0000      -1.051541       -28.6139 
  26   1.0000      -0.961223       -26.1562 
  27   1.0000      -0.936594       -25.4860 
  28   1.0000      -0.879303       -23.9270 
  29   1.0000      -0.835123       -22.7249 
  30   1.0000      -0.820336       -22.3225 
  31   1.0000      -0.798634       -21.7319 
  32   1.0000      -0.782337       -21.2885 
  33   1.0000      -0.774721       -21.0812 
  34   1.0000      -0.692738       -18.8504 
  35   1.0000      -0.686221       -18.6730 
  36   1.0000      -0.678421       -18.4608 
  37   1.0000      -0.655623       -17.8404 
  38   1.0000      -0.643924       -17.5221 
  39   1.0000      -0.639739       -17.4082 
  40   1.0000      -0.614549       -16.7227 
  41   1.0000      -0.598683       -16.2910 
  42   1.0000      -0.582493       -15.8504 
  43   1.0000      -0.573892       -15.6164 
  44   1.0000      -0.570655       -15.5283 
  45   1.0000      -0.563108       -15.3229 
  46   1.0000      -0.560047       -15.2396 
  47   1.0000      -0.552535       -15.0353 
  48   1.0000      -0.548945       -14.9376 
  49   1.0000      -0.540588       -14.7102 
  50   1.0000      -0.537466       -14.6252 
  51   1.0000      -0.535332       -14.5671 
  52   1.0000      -0.525513       -14.2999 
  53   1.0000      -0.514720       -14.0062 
  54   1.0000      -0.502949       -13.6859 
  55   1.0000      -0.500631       -13.6229 
  56   1.0000      -0.484568       -13.1858 
  57   1.0000      -0.416084       -11.3222 
  58   1.0000      -0.412336       -11.2202 
  59   1.0000      -0.401652       -10.9295 
  60   1.0000      -0.392717       -10.6864 
  61   1.0000      -0.386223       -10.5097 
  62   1.0000      -0.383328       -10.4309 
  63   1.0000      -0.380583       -10.3562 
  64   1.0000      -0.373051       -10.1512 
  65   0.0000      -0.064434        -1.7533 
  66   0.0000      -0.045771        -1.2455 
  67   0.0000       0.005537         0.1507 
  68   0.0000       0.028271         0.7693 
  69   0.0000       0.031124         0.8469 
  70   0.0000       0.039445         1.0734 
  71   0.0000       0.057416         1.5624 
  72   0.0000       0.058091         1.5807 
  73   0.0000       0.059940         1.6310 
  74   0.0000       0.064344         1.7509 
  75   0.0000       0.068374         1.8605 
*Only the first 10 virtual orbitals were printed.

                    ********************************
                    * MULLIKEN POPULATION ANALYSIS *
                    ********************************

--------------------------------------------
MULLIKEN ATOMIC CHARGES AND SPIN POPULATIONS
--------------------------------------------
   0 O :   -0.677526    0.168957
   1 O :   -0.684087    0.173691
   2 O :   -0.657633    0.008085
   3 O :   -0.638749    0.007462
   4 N :   -0.297761    0.017482
   5 N :   -0.306610    0.022994
   6 N :    0.078639    0.020634
   7 N :    0.055443    0.014191
   8 C :   -0.153286    0.400937
   9 C :   -0.156274    0.421006
  10 C :    0.334566    0.169148
  11 C :    0.754573    0.088495
  12 C :   -1.215512    0.017638
  13 C :   -1.210442    0.028289
  14 C :    0.614852    0.184438
  15 C :    0.462295    0.178604
  16 C :    0.370844   -0.014390
  17 C :    0.347550   -0.003083
  18 H :    0.604440    0.009398
  19 H :    0.513531    0.001847
  20 H :    0.313757    0.007177
  21 H :    0.192751    0.022470
  22 H :    0.297989    0.014254
  23 H :    0.306492    0.019158
  24 H :    0.225530    0.019789
  25 H :    0.323635    0.005389
  26 H :    0.058751   -0.001763
  27 H :    0.065296   -0.001062
  28 H :    0.043455   -0.001176
  29 H :    0.033493   -0.000062
Sum of atomic charges         :    0.0000000
Sum of atomic spin populations:    2.0000000

-----------------------------------------------------
MULLIKEN REDUCED ORBITAL CHARGES AND SPIN POPULATIONS
-----------------------------------------------------
CHARGE
  0 O s       :     4.100485  s :     4.100485
      pz      :     1.587807  p :     4.543820
      px      :     1.337575
      py      :     1.618438
      dz2     :     0.005195  d :     0.031357
      dxz     :     0.006040
      dyz     :     0.005462
      dx2y2   :     0.009381
      dxy     :     0.005278
      f0      :     0.000157  f :     0.001864
      f+1     :     0.000371
      f-1     :     0.000123
      f+2     :     0.000319
      f-2     :     0.000344
      f+3     :     0.000311
      f-3     :     0.000239

  1 O s       :     4.105369  s :     4.105369
      pz      :     1.428177  p :     4.546715
[...]
[1739887504.404472] [ohm:137482:0]        ib_iface.c:1059 UCX  ERROR ibv_create_cq(cqe=256) failed: Connection timed out
[1739887504.404937] [ohm:137400:0]        ib_iface.c:1059 UCX  ERROR ibv_create_cq(cqe=256) failed: Connection timed out
[1739887504.405944] [ohm:137360:0]        ib_iface.c:1059 UCX  ERROR ibv_create_cq(cqe=256) failed: Connection timed out
[1739887504.406642] [ohm:137356:0]        ib_iface.c:1059 UCX  ERROR ibv_create_cq(cqe=256) failed: Connection timed out
[1739887504.410649] [ohm:137439:0]        ib_iface.c:1059 UCX  ERROR ibv_create_cq(cqe=256) failed: Connection timed out
[1739887504.410798] [ohm:137354:0]        ib_iface.c:1059 UCX  ERROR ibv_create_cq(cqe=256) failed: Connection timed out
[1739887504.412034] [ohm:137367:0]        ib_iface.c:1059 UCX  ERROR ibv_create_cq(cqe=256) failed: Connection timed out
[1739887504.412469] [ohm:137346:0]        ib_iface.c:1059 UCX  ERROR ibv_create_cq(cqe=256) failed: Connection timed out
[1739887504.416423] [ohm:137471:0]        ib_iface.c:1059 UCX  ERROR ibv_create_cq(cqe=256) failed: Connection timed out
[1739887504.416567] [ohm:137466:0]        ib_iface.c:1059 UCX  ERROR ibv_create_cq(cqe=256) failed: Connection timed out
[1739887504.418216] [ohm:137467:0]        ib_iface.c:1059 UCX  ERROR ibv_create_cq(cqe=256) failed: Connection timed out


           ************************************************************
           *        Program running with 64 parallel MPI-processes    *
           *              working on a common directory               *
           ************************************************************

------------------------------------------------------------------------------
                              ORCA PROPERTY CALCULATIONS
------------------------------------------------------------------------------

GBWName                                 ... orca.gbw
Number of atoms                         ...     30
Number of basis functions               ...    882
Max core memory                         ...   1024 MB

Electric properties:
Dipole moment                           ... YES
Quadrupole moment                       ...  NO
Static polarizability (Dipole/Dipole)   ...  NO
Static polarizability (Dipole/Quad.)    ...  NO
Static polarizability (Quad./Quad.)     ...  NO
Static polarizability (Velocity)        ...  NO

Atomic electric properties:
Dipole moment                           ...  NO
Quadrupole moment                       ...  NO
Static polarizability                   ...  NO

Choice of electric origin               ... Center of mass
Position of electric origin             ...    -0.014158    -0.076647    -0.035801

General magnetic properties:
Magnetizability                         ...  NO

EPR properties:
g-Tensor (aka g-matrix)                 ...  NO
Zero-Field splitting spin-orbit         ...  NO
Zero-field splitting spin-spin          ...  NO
Hyperfine couplings                     ...  NO (   0 nuclei)
Quadrupole couplings                    ...  NO (   0 nuclei)
Contact density                         ...  NO (   0 nuclei)

NMR properties:
Chemical shifts                         ...  NO (   0 nuclei)
Spin-rotation constants                 ...  NO (   0 nuclei)
Spin-spin couplings                     ...  NO (   0 nuclei,    0 pairs)

Choice of magnetic origin               ... GIAO
Position of magnetic origin             ...     0.000000     0.000000     0.000000

Properties with geometric perturbations:
SCF Hessian                             ...  NO
IR spectrum                             ...  NO
VCD spectrum                            ...  NO
X-ray spectroscopy properties:
SCF XES/XAS/RIXS spectra                ...  NO


-------------
DIPOLE MOMENT
-------------

Method             : SCF
Type of density    : Electron Density
Multiplicity       :   3
Irrep              :   0
Energy             :  -908.7625624092096359 Eh
Relativity type    : 
Basis              : AO
                                X                 Y                 Z
Electronic contribution:     -2.718381195     -10.367225695      -7.355116665
Nuclear contribution   :      2.443678724      12.013897665      10.149797051
                        -----------------------------------------
Total Dipole Moment    :     -0.274702471       1.646671971       2.794680386
                        -----------------------------------------
Magnitude (a.u.)       :      3.255338459
Magnitude (Debye)      :      8.274412785



--------------------
Rotational spectrum 
--------------------
 
Rotational constants in cm-1:             0.018881             0.015264             0.012220 
Rotational constants in MHz :           566.042634           457.591147           366.346076 

Dipole components along the rotational axes: 
x,y,z [a.u.] :     0.551107    -1.630190     2.763329 
x,y,z [Debye]:     1.400804    -4.143614     7.023825 

 

-------------
DIPOLE MOMENT
-------------

Method             : TDA/CIS
Type of density    : Electron Density
Level              : Relaxed density
State              :   1
Multiplicity       :   3
Irrep              :   0
Energy             :     0.0000000000000000 Eh
Relativity type    : 
Basis              : AO
                                X                 Y                 Z
Electronic contribution:     -2.743688990     -10.335530168      -7.244865259
Nuclear contribution   :      2.443678724      12.013897665      10.149797051
                        -----------------------------------------
Total Dipole Moment    :     -0.300010265       1.678367497       2.904931792
                        -----------------------------------------
Magnitude (a.u.)       :      3.368315949
Magnitude (Debye)      :      8.561578742



--------------------
Rotational spectrum 
--------------------
 
Rotational constants in cm-1:             0.018881             0.015264             0.012220 
Rotational constants in MHz :           566.042634           457.591147           366.346076 

Dipole components along the rotational axes: 
x,y,z [a.u.] :     0.549948    -1.666497     2.875048 
x,y,z [Debye]:     1.397857    -4.235898     7.307790 

 

Dipole moment calculation done in   0.2 sec 

Maximum memory used throughout the entire PROP-calculation: 81.7 MB
[1739887506.860735] [ohm:137712:0]        ib_iface.c:1059 UCX  ERROR ibv_create_cq(cqe=256) failed: Connection timed out
[1739887506.872753] [ohm:137682:0]        ib_iface.c:1059 UCX  ERROR ibv_create_cq(cqe=256) failed: Connection timed out
[1739887506.872871] [ohm:137680:0]        ib_iface.c:1059 UCX  ERROR ibv_create_cq(cqe=256) failed: Connection timed out
[1739887506.889469] [ohm:137675:0]        ib_iface.c:1059 UCX  ERROR ibv_create_cq(cqe=256) failed: Connection timed out
[1739887506.893769] [ohm:137744:0]        ib_iface.c:1059 UCX  ERROR ibv_create_cq(cqe=256) failed: Connection timed out
[1739887506.897443] [ohm:137689:0]        ib_iface.c:1059 UCX  ERROR ibv_create_cq(cqe=256) failed: Connection timed out
[1739887506.907881] [ohm:137684:0]        ib_iface.c:1059 UCX  ERROR ibv_create_cq(cqe=256) failed: Connection timed out
[1739887506.947394] [ohm:137771:0]        ib_iface.c:1059 UCX  ERROR ibv_create_cq(cqe=256) failed: Connection timed out
[1739887506.947447] [ohm:137686:0]        ib_iface.c:1059 UCX  ERROR ibv_create_cq(cqe=256) failed: Connection timed out
[1739887506.947681] [ohm:137692:0]        ib_iface.c:1059 UCX  ERROR ibv_create_cq(cqe=256) failed: Connection timed out
[1739887506.950048] [ohm:137679:0]        ib_iface.c:1059 UCX  ERROR ibv_create_cq(cqe=256) failed: Connection timed out
[1739887506.962621] [ohm:137762:0]        ib_iface.c:1059 UCX  ERROR ibv_create_cq(cqe=256) failed: Connection timed out
[1739887506.978801] [ohm:137677:0]        ib_iface.c:1059 UCX  ERROR ibv_create_cq(cqe=256) failed: Connection timed out
[1739887506.979277] [ohm:137779:0]        ib_iface.c:1059 UCX  ERROR ibv_create_cq(cqe=256) failed: Connection timed out
[1739887506.981244] [ohm:137793:0]        ib_iface.c:1059 UCX  ERROR ibv_create_cq(cqe=256) failed: Connection timed out
[1739887506.992363] [ohm:137691:0]        ib_iface.c:1059 UCX  ERROR ibv_create_cq(cqe=256) failed: Connection timed out
[1739887506.998624] [ohm:137792:0]        ib_iface.c:1059 UCX  ERROR ibv_create_cq(cqe=256) failed: Connection timed out
[1739887507.004855] [ohm:137801:0]        ib_iface.c:1059 UCX  ERROR ibv_create_cq(cqe=256) failed: Connection timed out
[1739887507.037601] [ohm:137742:0]        ib_iface.c:1059 UCX  ERROR ibv_create_cq(cqe=256) failed: Connection timed out
[1739887507.054806] [ohm:137678:0]        ib_iface.c:1059 UCX  ERROR ibv_create_cq(cqe=256) failed: Connection timed out
[1739887507.063044] [ohm:137778:0]        ib_iface.c:1059 UCX  ERROR ibv_create_cq(cqe=256) failed: Connection timed out
[1739887507.070377] [ohm:137751:0]        ib_iface.c:1059 UCX  ERROR ibv_create_cq(cqe=256) failed: Connection timed out
[1739887507.079223] [ohm:137685:0]        ib_iface.c:1059 UCX  ERROR ibv_create_cq(cqe=256) failed: Connection timed out
[1739887507.083145] [ohm:137741:0]        ib_iface.c:1059 UCX  ERROR ibv_create_cq(cqe=256) failed: Connection timed out
[1739887507.083813] [ohm:137720:0]        ib_iface.c:1059 UCX  ERROR ibv_create_cq(cqe=256) failed: Connection timed out
[1739887507.086466] [ohm:137715:0]        ib_iface.c:1059 UCX  ERROR ibv_create_cq(cqe=256) failed: Connection timed out
[1739887507.085813] [ohm:137688:0]        ib_iface.c:1059 UCX  ERROR ibv_create_cq(cqe=256) failed: Connection timed out
[1739887507.091965] [ohm:137683:0]        ib_iface.c:1059 UCX  ERROR ibv_create_cq(cqe=256) failed: Connection timed out
[1739887507.099237] [ohm:137814:0]        ib_iface.c:1059 UCX  ERROR ibv_create_cq(cqe=256) failed: Connection timed out
[1739887507.106118] [ohm:137755:0]        ib_iface.c:1059 UCX  ERROR ibv_create_cq(cqe=256) failed: Connection timed out
[1739887507.106779] [ohm:137798:0]        ib_iface.c:1059 UCX  ERROR ibv_create_cq(cqe=256) failed: Connection timed out
[1739887507.110258] [ohm:137769:0]        ib_iface.c:1059 UCX  ERROR ibv_create_cq(cqe=256) failed: Connection timed out
[1739887507.116977] [ohm:137772:0]        ib_iface.c:1059 UCX  ERROR ibv_create_cq(cqe=256) failed: Connection timed out
[1739887507.126452] [ohm:137716:0]        ib_iface.c:1059 UCX  ERROR ibv_create_cq(cqe=256) failed: Connection timed out
[1739887507.131525] [ohm:137766:0]        ib_iface.c:1059 UCX  ERROR ibv_create_cq(cqe=256) failed: Connection timed out
[1739887507.133028] [ohm:137676:0]        ib_iface.c:1059 UCX  ERROR ibv_create_cq(cqe=256) failed: Connection timed out
[1739887507.139724] [ohm:137829:0]        ib_iface.c:1059 UCX  ERROR ibv_create_cq(cqe=256) failed: Connection timed out
[1739887507.142419] [ohm:137737:0]        ib_iface.c:1059 UCX  ERROR ibv_create_cq(cqe=256) failed: Connection timed out
[1739887507.149939] [ohm:137826:0]        ib_iface.c:1059 UCX  ERROR ibv_create_cq(cqe=256) failed: Connection timed out
[1739887507.154229] [ohm:137757:0]        ib_iface.c:1059 UCX  ERROR ibv_create_cq(cqe=256) failed: Connection timed out
[1739887507.159233] [ohm:137818:0]        ib_iface.c:1059 UCX  ERROR ibv_create_cq(cqe=256) failed: Connection timed out
[1739887507.163784] [ohm:137823:0]        ib_iface.c:1059 UCX  ERROR ibv_create_cq(cqe=256) failed: Connection timed out
[1739887507.164914] [ohm:137674:0]        ib_iface.c:1059 UCX  ERROR ibv_create_cq(cqe=256) failed: Connection timed out
[1739887507.168385] [ohm:137681:0]        ib_iface.c:1059 UCX  ERROR ibv_create_cq(cqe=256) failed: Connection timed out
[1739887507.170226] [ohm:137810:0]        ib_iface.c:1059 UCX  ERROR ibv_create_cq(cqe=256) failed: Connection timed out
[1739887507.174966] [ohm:137796:0]        ib_iface.c:1059 UCX  ERROR ibv_create_cq(cqe=256) failed: Connection timed out
[1739887507.175061] [ohm:137696:0]        ib_iface.c:1059 UCX  ERROR ibv_create_cq(cqe=256) failed: Connection timed out
[1739887507.175578] [ohm:137706:0]        ib_iface.c:1059 UCX  ERROR ibv_create_cq(cqe=256) failed: Connection timed out
[1739887507.176415] [ohm:137719:0]        ib_iface.c:1059 UCX  ERROR ibv_create_cq(cqe=256) failed: Connection timed out
[1739887507.176509] [ohm:137774:0]        ib_iface.c:1059 UCX  ERROR ibv_create_cq(cqe=256) failed: Connection timed out
[1739887507.178695] [ohm:137787:0]        ib_iface.c:1059 UCX  ERROR ibv_create_cq(cqe=256) failed: Connection timed out
[1739887507.180702] [ohm:137750:0]        ib_iface.c:1059 UCX  ERROR ibv_create_cq(cqe=256) failed: Connection timed out
[1739887507.183772] [ohm:137724:0]        ib_iface.c:1059 UCX  ERROR ibv_create_cq(cqe=256) failed: Connection timed out
[1739887507.194082] [ohm:137690:0]        ib_iface.c:1059 UCX  ERROR ibv_create_cq(cqe=256) failed: Connection timed out
[1739887507.195253] [ohm:137703:0]        ib_iface.c:1059 UCX  ERROR ibv_create_cq(cqe=256) failed: Connection timed out
[1739887507.198873] [ohm:137697:0]        ib_iface.c:1059 UCX  ERROR ibv_create_cq(cqe=256) failed: Connection timed out
[1739887507.199266] [ohm:137727:0]        ib_iface.c:1059 UCX  ERROR ibv_create_cq(cqe=256) failed: Connection timed out
[1739887507.199574] [ohm:137785:0]        ib_iface.c:1059 UCX  ERROR ibv_create_cq(cqe=256) failed: Connection timed out
[1739887507.202936] [ohm:137702:0]        ib_iface.c:1059 UCX  ERROR ibv_create_cq(cqe=256) failed: Connection timed out
[1739887507.203875] [ohm:137735:0]        ib_iface.c:1059 UCX  ERROR ibv_create_cq(cqe=256) failed: Connection timed out
[1739887507.204027] [ohm:137687:0]        ib_iface.c:1059 UCX  ERROR ibv_create_cq(cqe=256) failed: Connection timed out
[1739887507.204379] [ohm:137730:0]        ib_iface.c:1059 UCX  ERROR ibv_create_cq(cqe=256) failed: Connection timed out
[1739887507.204915] [ohm:137718:0]        ib_iface.c:1059 UCX  ERROR ibv_create_cq(cqe=256) failed: Connection timed out
[1739887507.205438] [ohm:137745:0]        ib_iface.c:1059 UCX  ERROR ibv_create_cq(cqe=256) failed: Connection timed out

--------------------------------
SUGGESTED CITATIONS FOR THIS RUN
--------------------------------

Below you find a list of papers that are relevant to this ORCA run
We neither can nor want to force you to cite these papers, but we appreciate if you do
You receive ORCA, which is the product of decades of hard work by many enthusiastic individuals, for free
The only thing we kindly ask in return is that you cite our papers,
We deeply appreciate it, if you show your appreciation for ORCA by not just citing the generic ORCA reference.

Please note that relegating all ORCA citations to the supporting information does *not* help us.
SI sections are not indexed - citations you put there will not count into any citation statistics
But we need these citations in order to attract the funding resources that allow us to do what we are doing

Therefore, if you are a happy ORCA user, please consider citing a few of the papers listed below in the main body of your paper

In addition to the list printed below, the program has created the file orca.bibtex that contains the list in bibtex format
You can import this file easily into all common literature databanks and citation aid programs


List of essential papers. We consider these as the minimum necessary citations

  1. Neese,F.
     Software update: the ORCA program system, version 5.0
     WIRES Comput. Molec. Sci., 2022 12(1)e1606
     doi.org/10.1002/wcms.1606

List of papers to cite with high priority. The work reported in these papers was absolutely
necessary for this run to complete.
Our perspective: the developers of density functionals and basis sets usually get cited in chemistry papers
Good! But without the algorithms to do something with them, the functionals or basis sets would not do anything.
Hence, in our opinion, the algorithm design and method developments papers are equally worthy of getting cited

  1. Neese,F.; Olbrich,G.
     Efficient use of the resolution of the identity approximation in time-dependent density functional calculations with hybrid density functionals
     Chem. Phys. Lett., 2002 362 170-178
     doi.org/10.1016/s0009-2614(02)01053-9
  2. Neese,F.
     An improvement of the resolution of the identity approximation for the formation of the Coulomb matrix
     J. Comp. Chem., 2003 24(14)1740-1747
     doi.org/10.1002/jcc.10318
  3. Neese,F.; Wennmohs,F.; Hansen,A.; Becker,U.
     Efficient, approximate and parallel Hartree-Fock and hybrid DFT calculations. A 'chain-of-spheres' algorithm for the Hartree-Fock exchange
     Chem. Phys., 2009 356(1-3)98-109
     doi.org/10.1016/j.chemphys.2008.10.036
  4. Petrenko,T.; Kossmann,S.; Neese,F.
     Efficient time-dependent density functional theory approximations for hybrid density functionals: Analytical gradients and parallelization
     J. Chem. Phys., 2011 134 054116
     doi.org/10.1063/1.3533441
  5. Helmich-Paris,B.; de Souza,B.; Neese,F.; Izsák,R.
     An improved chain of spheres for exchange algorithm
     J. Chem. Phys., 2021 155 104109
     doi.org/doi: 10.1063/5.0058766.
  6. Neese,F.
     The SHARK Integral Generation and Digestion System
     J. Comp. Chem., 2022  1-16
     doi.org/10.1002/jcc.26942
  7. Lehtola,S.; Steigemann,C.; Oliveira,M.; Marques,M.
     Recent developments in Libxc - A comprehensive library of functionals for density functional theory
     Software X, 2018 7 
     doi.org/10.1016/j.softx.2017.11.002
  8. Grimme,S.; Antony,J.; Ehrlich,S.; Krieg,H.
     A consistent and accurate ab initio parametrization of density functional dispersion correction (DFT-D) for the 94 elements H-Pu
     J. Chem. Phys., 2010 132 154104-XXXX
     doi.org/10.1063/1.3382344
  9. Grimme,S.; Ehrlich,S.; Goerigk,L.
     Effect of the damping function in dispersion corrected density functional theory
     J. Comput. Chem., 2011 32(7)1456-1465
     doi.org/10.1002/jcc.21759

List of suggested additional citations. These are papers that are important in the 'surrounding' of 
of this run, or papers that preceded the highly important papers. If you like your results we are grateful for a citation.

  1. Izsak,R.; Neese,F.
     An overlap fitted chain of spheres exchange method
     J. Chem. Phys., 2011 135 144105
     doi.org/10.1063/1.3646921
  2. Izsak,R.; Hansen,A.; Neese,F.
     The resolution of identity and chain of spheres approximations for the LPNO-CCSD singles Fock term
     Molec. Phys., 2012 110 2413-2417
     doi.org/10.1080/00268976.2012.687466
  3. Neese,F.
     The ORCA program system
     WIRES Comput. Molec. Sci., 2012 2(1)73-78
     doi.org/10.1002/wcms.81
  4. Izsak,R.; Neese,F.; Klopper,W.
     Robust fitting techniques in the chain of spheres approximation to the Fock exchange: The role of the complementary space
     J. Chem. Phys., 2013 139 
     doi.org/10.1063/1.4819264
  5. Neese,F.
     Software update: the ORCA program system, version 4.0
     WIRES Comput. Molec. Sci., 2018 8(1)1-6
     doi.org/10.1002/wcms.1327
  6. Neese,F.; Wennmohs,F.; Becker,U.; Riplinger,C.
     The ORCA quantum chemistry program package
     J. Chem. Phys., 2020 152 Art. No. L224108
     doi.org/10.1063/5.0004608

List of optional additional citations

  1. Neese,F.
     Approximate second-order SCF convergence for spin unrestricted wavefunctions
     Chem. Phys. Lett., 2000 325(1-3)93-98
     doi.org/10.1016/s0009-2614(00)00662-x

Timings for individual modules:

Sum of individual times          ...      270.155 sec (=   4.503 min)
Startup calculation              ...        6.406 sec (=   0.107 min)   2.4 %
SCF iterations                   ...      124.196 sec (=   2.070 min)  46.0 %
Property integrals               ...        4.294 sec (=   0.072 min)   1.6 %
Property calculations            ...        2.819 sec (=   0.047 min)   1.0 %
CIS module                       ...      132.441 sec (=   2.207 min)  49.0 %
                             ****ORCA TERMINATED NORMALLY****
TOTAL RUN TIME: 0 days 0 hours 4 minutes 32 seconds 218 msec
