7
Properties=species:S:1:pos:R:3:momenta:R:3:forces:R:3 Coordinates=T from=T ORCA-job=T orca=T E=T -153.851947508303=T energy=-4183.38184612461 free_energy=-4183.38184612461 stress="2.740064586530806e-06 5.7916954944058846e-06 -1.7323458509542608e-06 5.7916954944058846e-06 1.8881686121946514e-05 -1.6937864884898117e-06 -1.7323458509542608e-06 -1.6937864884898117e-06 1.585814586862472e-06" pbc="F F F"
O        0.51644379       1.25123578      -0.02533060       2.48083629       1.27973086      -0.22522670      -0.71358080      -1.91444077       0.22942347
C        0.42816198      -0.26269282      -0.01174138      -2.05726762       1.15691156       0.32027320       0.18756497      -0.66692049      -0.30692995
C       -0.87758918      -1.09574214       0.03936058      -0.15240492      -0.83426675      -0.25375532      -0.44401914       2.33419185      -0.12923263
H        1.02427845      -0.64617022       0.80801711      -0.16823708      -0.17560104      -0.02608537       0.33027401       0.63549711       0.39534393
H        0.99126536      -0.57014137      -0.89593979      -0.16200148      -0.01425678       0.02405792      -0.07208306       0.28066445      -0.13161724
H       -1.50034641      -1.07830934      -0.86265377      -0.00290444      -0.71792067       0.10222658       0.33053611      -0.35975439       0.41014783
H       -1.42040026      -1.12832916       0.99238593       0.06197925      -0.69459719       0.05850970       0.38130791      -0.30923776      -0.46713541
