
                                 *****************
                                 * O   R   C   A *
                                 *****************

                                            #,                                       
                                            ###                                      
                                            ####                                     
                                            #####                                    
                                            ######                                   
                                           ########,                                 
                                     ,,################,,,,,                         
                               ,,#################################,,                 
                          ,,##########################################,,             
                       ,#########################################, ''#####,          
                    ,#############################################,,   '####,        
                  ,##################################################,,,,####,       
                ,###########''''           ''''###############################       
              ,#####''   ,,,,##########,,,,          '''####'''          '####       
            ,##' ,,,,###########################,,,                        '##       
           ' ,,###''''                  '''############,,,                           
         ,,##''                                '''############,,,,        ,,,,,,###''
      ,#''                                            '''#######################'''  
     '                                                          ''''####''''         
             ,#######,   #######,   ,#######,      ##                                
            ,#'     '#,  ##    ##  ,#'     '#,    #''#        ,####,   ,####,        
            ##       ##  ##   ,#'  ##            #'  '#       #'       #'  '#        
            ##       ##  #######   ##           ,######,      #####,   #    #        
            '#,     ,#'  ##    ##  '#,     ,#' ,#      #,     #,   #   #,  ,#        
             '#######'   ##     ##  '#######'  #'      '#     '####' # '####'        



                #########################################################
                #                        -***-                          #
                #          Department of theory and spectroscopy        #
                #                                                       #
                #                      Frank Neese                      #
                #                                                       #
                #     Directorship, Architecture, Infrastructure        #
                #                    SHARK, DRIVERS                     #
                #        Core code/Algorithms in most modules           #
                #                                                       #
                #        Max Planck Institute fuer Kohlenforschung      #
                #                Kaiser Wilhelm Platz 1                 #
                #                 D-45470 Muelheim/Ruhr                 #
                #                      Germany                          #
                #                                                       #
                #                  All rights reserved                  #
                #                        -***-                          #
                #########################################################


                         Program Version 6.0.0  -   RELEASE  -


 With contributions from (in alphabetic order):
   Daniel Aravena         : Magnetic Suceptibility
   Michael Atanasov       : Ab Initio Ligand Field Theory (pilot matlab implementation)
   Alexander A. Auer      : GIAO ZORA, VPT2 properties, NMR spectrum
   Ute Becker             : All parallelization in ORCA, NUMFREQ, NUMCALC
   Giovanni Bistoni       : ED, misc. LED, open-shell LED, HFLD
   Martin Brehm           : Molecular dynamics
   Dmytro Bykov           : pre 5.0 version of the SCF Hessian
   Marcos Casanova-Páez   : Triplet and SCS-CIS(D). UHF-(DLPNO)-IP/EA/STEOM-CCSD. UHF-CVS-IP/STEOM-CCSD
   Vijay G. Chilkuri      : MRCI spin determinant printing, contributions to CSF-ICE
   Pauline Colinet        : FMM embedding
   Dipayan Datta          : RHF DLPNO-CCSD density
   Achintya Kumar Dutta   : EOM-CC, STEOM-CC
   Nicolas Foglia         : Exact transition moments, OPA infrastructure, MCD improvements
   Dmitry Ganyushin       : Spin-Orbit,Spin-Spin,Magnetic field MRCI
   Miquel Garcia          : C-PCM and meta-GGA Hessian, CCSD/C-PCM, Gaussian charge scheme
   Tiago L. C. Gouveia    : GS-ROHF, GS-ROCIS
   Yang Guo               : DLPNO-NEVPT2, F12-NEVPT2, CIM, IAO-localization
   Andreas Hansen         : Spin unrestricted coupled pair/coupled cluster methods
   Ingolf Harden          : AUTO-CI MPn and infrastructure 
   Benjamin Helmich-Paris : MC-RPA, TRAH-(SCF,CASSCF), AVAS, COSX integrals, SCF dyn. polar.
   Lee Huntington         : MR-EOM, pCC
   Robert Izsak           : Overlap fitted RIJCOSX, COSX-SCS-MP3, EOM
   Riya Kayal             : Wick's Theorem for AUTO-CI, AUTO-CI UHF-CCSDT
   Emily Kempfer          : AUTO-CI, RHF CISDT and CCSDT
   Christian Kollmar      : KDIIS, OOCD, Brueckner-CCSD(T), CCSD density, CASPT2, CASPT2-K, improved NEVPT2
   Axel Koslowski         : Symmetry handling
   Simone Kossmann        : Meta GGA functionals, TD-DFT gradient, OOMP2, (MP2 Hessian; deprecated post 5.0)
   Lucas Lang             : DCDCAS
   Marvin Lechner         : AUTO-CI (C++ implementation), FIC-MRCC
   Spencer Leger          : CASSCF response
   Dagmar Lenk            : GEPOL surface, SMD, ORCA-2-JSON
   Dimitrios Liakos       : Extrapolation schemes; Compound Job, initial MDCI parallelization
   Dimitrios Manganas     : Further ROCIS development; embedding schemes. LFT, Crystal Embedding
   Dimitrios Pantazis     : SARC Basis sets
   Anastasios Papadopoulos: AUTO-CI, single reference methods and gradients
   Taras Petrenko         : pre 6.0 DFT Hessian and TD-DFT gradient, (ASA, deprecated), ECA, 1-Electron XAS/XES, NRVS
   Peter Pinski           : DLPNO-MP2, DLPNO-MP2 Gradient
   Christoph Reimann      : Effective Core Potentials
   Marius Retegan         : Local ZFS, SOC
   Christoph Riplinger    : Optimizer, TS searches, QM/MM, DLPNO-CCSD(T), (RO)-DLPNO pert. Triples
   Michael Roemelt        : Original ROCIS implementation
   Masaaki Saitow         : Open-shell DLPNO-CCSD energy and density
   Barbara Sandhoefer     : DKH picture change effects
   Kantharuban Sivalingam : CASSCF convergence/infrastructure, NEVPT2 and variants, FIC-MRCI
   Bernardo de Souza      : ESD, SOC TD-DFT
   Georgi Stoychev        : AutoAux, RI-MP2 NMR, DLPNO-MP2 response, X2C
   Van Anh Tran           : RI-MP2 g-tensors
   Willem Van den Heuvel  : Paramagnetic NMR
   Zikuan Wang            : NOTCH, Electric field optimization 
   Frank Wennmohs         : Technical directorship and infrastructure
   Hang Xu                : AUTO-CI-Response properties 


 We gratefully acknowledge several colleagues who have allowed us to
 interface, adapt or use parts of their codes:
   Stefan Grimme, W. Hujo, H. Kruse, P. Pracht,  : VdW corrections, initial TS optimization,
                  C. Bannwarth, S. Ehlert,         DFT functionals, gCP, sTDA/sTD-DF
                  L. Wittmann, M. Mueller
   Ed Valeev, F. Pavosevic, A. Kumar             : LibInt (2-el integral package), F12 methods
   Garnet Chan, S. Sharma, J. Yang, R. Olivares  : DMRG
   Ulf Ekstrom                                   : XCFun DFT Library
   Mihaly Kallay                                 : mrcc  (arbitrary order and MRCC methods)
   Frank Weinhold                                : gennbo (NPA and NBO analysis)
   Simon Mueller                                 : openCOSMO-RS
   Christopher J. Cramer and Donald G. Truhlar   : smd solvation model
   Lars Goerigk                                  : TD-DFT with DH, B97 family of functionals
   V. Asgeirsson, H. Jonsson                     : NEB implementation
   FAccTs GmbH                                   : IRC, NEB, NEB-TS, DLPNO-Multilevel, CI-OPT
                                                   MM, QMMM, 2- and 3-layer-ONIOM, Crystal-QMMM,
                                                   LR-CPCM, SF, NACMEs, symmetry and pop. for TD-DFT,
                                                   nearIR, NL-DFT gradient (VV10), updates on ESD,
                                                   ML-optimized integration grids, MBIS, APM,
                                                   GOAT, DOCKER, SOLVATOR, interface openCOSMO-RS
   S Lehtola, MJT Oliveira, MAL Marques          : LibXC Library
   Liviu Ungur et al                             : ANISO software


 Your calculation uses the libint2 library for the computation of 2-el integrals
 For citations please refer to: http://libint.valeyev.net

 Your ORCA version has been built with support for libXC version: 6.2.2
 For citations please refer to: https://libxc.gitlab.io

 This ORCA versions uses:
   CBLAS   interface :  Fast vector & matrix operations
   LAPACKE interface :  Fast linear algebra routines
   SCALAPACK package :  Parallel linear algebra routines
   Shared memory     :  Shared parallel matrices
   BLAS/LAPACK       :  OpenBLAS 0.3.27  USE64BITINT DYNAMIC_ARCH NO_AFFINITY Zen SINGLE_THREADED
        Core in use  :  Zen
   Copyright (c) 2011-2014, The OpenBLAS Project


Your calculation utilizes the atom-pairwise dispersion correction
with the Becke-Johnson damping scheme (D3BJ)


Warning: RI is on but no J-basis has been assigned. Assigning Def2/J (nothing to worry about!)
================================================================================

----- Orbital basis set information -----
Your calculation utilizes the basis: def2-TZVPPD
   F. Weigend and R. Ahlrichs, Phys. Chem. Chem. Phys. 7, 3297 (2005).
   D. Rappoport and F. Furche, J. Chem. Phys. 133, 134105 (2010)
   D. Rappoport, J. Chem. Phys. 155, 124102 (2021).

----- AuxJ basis set information -----
Your calculation utilizes the auxiliary basis: def2/J
   F. Weigend, Phys. Chem. Chem. Phys. 8, 1057 (2006).

================================================================================
                                        WARNINGS
                       Please study these warnings very carefully!
================================================================================

Using LibXC functional ID 531 : wB97M-V exchange-correlation functional
[ 1]  N. Mardirossian and M. Head-Gordon.,  J. Chem. Phys. 144, 214110 (2016)
Using LibXC functional ID 531 : wB97M-V exchange-correlation functional
[ 1]  N. Mardirossian and M. Head-Gordon.,  J. Chem. Phys. 144, 214110 (2016)

WARNING: B97M-V or wB97M-V functional requested.
  ===> : libXC variant has now been activated.
         Any manually given DFX/HFX/RangeSep scaling parameters are IGNORED!

Your calculation utilizes LibXC
 by S Lehtola, C Steigemann, MJT Oliveira & MAL Marques
Please cite in your paper:
 S Lehtola, C Steigemann, MJT Oliveira & MAL Marques, SoftwareX, 7, (2018), 1.
   


WARNING: your system is open-shell and RHF/RKS was chosen
  ===> : WILL SWITCH to UHF/UKS

INFO   : Checking CIS options ...

WARNING: CIS/ROCIS methods need fully converged wavefunctions
  ===> : Setting SCFConvForced true
         You can overwrite this default with %scf ConvForced false 


================================================================================
                                       INPUT FILE
================================================================================
NAME = orca.inp
|  1> ! Engrad def2-TZVPPD wB97M-D3BJ 
|  2> %pal nprocs 8 end%pal nprocs 64 end 
|  3>  %tddft nroots 2 Iroot 1 
|  4> sf true 
|  5> end 
|  6> *xyz 0 3 
|  7> O   2.89218098440171 1.22978318151367 -0.49162068534771
|  8> O   -0.50009535983435 0.47829518853198 -1.94390189234049
|  9> O   1.32449418612759 -2.86336023386566 -1.69169693382411
| 10> O   -3.11532458029911 -1.39626274942479 1.24741393414797
| 11> N   0.6520689331661 -1.9678570133149 0.29133510246777
| 12> N   -2.24360601911842 0.67556043848406 1.62696497562486
| 13> N   2.11749422939921 -0.81780109520121 -1.05664319631034
| 14> N   -1.90822968711889 -0.36609974211029 -0.39204417469225
| 15> C   1.30643778113547 0.22536688773426 0.96384535900842
| 16> C   -0.76648777390086 1.7075460839266 0.07158725708922
| 17> C   0.66705967005584 -0.93156508217499 1.19188596411138
| 18> C   -1.47332707869721 1.74055655849885 1.20563455545497
| 19> C   1.49903078831353 1.26230581466731 2.02613121441684
| 20> C   0.01247972786554 2.87847903938266 -0.44138327927429
| 21> C   2.16049604287132 0.29758389542672 -0.22948378376218
| 22> C   -1.0077107045765 0.59556006203755 -0.85037197642762
| 23> C   1.358249030691 -1.95531839965134 -0.89543423022347
| 24> C   -2.47643107575602 -0.44218912874309 0.85884631010991
| 25> H   0.10715696909965 -1.10824851120451 2.09828529363194
| 26> H   -1.42806767332844 2.57451078240159 1.88864597631335
| 27> H   1.38134327065035 2.2673116878957 1.63522058742696
| 28> H   0.79304039126506 1.11040760053121 2.83968496959039
| 29> H   2.5085314129665 1.19653131016151 2.42955482551513
| 30> H   -0.41474896369654 3.22282694209863 -1.38135102724214
| 31> H   -0.01613923964078 3.69681888260005 0.27481753878965
| 32> H   1.04921945274559 2.62131289060746 -0.63751341495192
| 33> H   0.10206795292353 -2.79063526297077 0.4620481725727
| 34> H   -2.70670131141708 0.68998727179706 2.51749992453093
| 35> H   2.63793987937078 -0.75766801524717 -1.91726058809205
| 36> H   -2.05982123566461 -1.15873928438818 -0.99609677831382
| 37> *
| 38> 
| 39>                          ****END OF INPUT****
================================================================================

                     *******************************
                     * Energy+Gradient Calculation *
                     *******************************

---------------------------------
CARTESIAN COORDINATES (ANGSTROEM)
---------------------------------
  O      2.892181    1.229783   -0.491621
  O     -0.500095    0.478295   -1.943902
  O      1.324494   -2.863360   -1.691697
  O     -3.115325   -1.396263    1.247414
  N      0.652069   -1.967857    0.291335
  N     -2.243606    0.675560    1.626965
  N      2.117494   -0.817801   -1.056643
  N     -1.908230   -0.366100   -0.392044
  C      1.306438    0.225367    0.963845
  C     -0.766488    1.707546    0.071587
  C      0.667060   -0.931565    1.191886
  C     -1.473327    1.740557    1.205635
  C      1.499031    1.262306    2.026131
  C      0.012480    2.878479   -0.441383
  C      2.160496    0.297584   -0.229484
  C     -1.007711    0.595560   -0.850372
  C      1.358249   -1.955318   -0.895434
  C     -2.476431   -0.442189    0.858846
  H      0.107157   -1.108249    2.098285
  H     -1.428068    2.574511    1.888646
  H      1.381343    2.267312    1.635221
  H      0.793040    1.110408    2.839685
  H      2.508531    1.196531    2.429555
  H     -0.414749    3.222827   -1.381351
  H     -0.016139    3.696819    0.274818
  H      1.049219    2.621313   -0.637513
  H      0.102068   -2.790635    0.462048
  H     -2.706701    0.689987    2.517500
  H      2.637940   -0.757668   -1.917261
  H     -2.059821   -1.158739   -0.996097

----------------------------
CARTESIAN COORDINATES (A.U.)
----------------------------
  NO LB      ZA    FRAG     MASS         X           Y           Z
   0 O     8.0000    0    15.999    5.465430    2.323953   -0.929028
   1 O     8.0000    0    15.999   -0.945043    0.903847   -3.673442
   2 O     8.0000    0    15.999    2.502931   -5.410967   -3.196844
   3 O     8.0000    0    15.999   -5.887110   -2.638554    2.357271
   4 N     7.0000    0    14.007    1.232232   -3.718711    0.550544
   5 N     7.0000    0    14.007   -4.239801    1.276624    3.074518
   6 N     7.0000    0    14.007    4.001484   -1.545420   -1.996766
   7 N     7.0000    0    14.007   -3.606032   -0.691828   -0.740856
   8 C     6.0000    0    12.011    2.468810    0.425882    1.821404
   9 C     6.0000    0    12.011   -1.448452    3.226794    0.135280
  10 C     6.0000    0    12.011    1.260560   -1.760403    2.252338
  11 C     6.0000    0    12.011   -2.784185    3.289175    2.278319
  12 C     6.0000    0    12.011    2.832758    2.385412    3.828833
  13 C     6.0000    0    12.011    0.023583    5.439537   -0.834094
  14 C     6.0000    0    12.011    4.082746    0.562352   -0.433662
  15 C     6.0000    0    12.011   -1.904297    1.125445   -1.606970
  16 C     6.0000    0    12.011    2.566719   -3.695016   -1.692125
  17 C     6.0000    0    12.011   -4.679777   -0.835616    1.622984
  18 H     1.0000    0     1.008    0.202497   -2.094286    3.965185
  19 H     1.0000    0     1.008   -2.698657    4.865120    3.569024
  20 H     1.0000    0     1.008    2.610360    4.284598    3.090119
  21 H     1.0000    0     1.008    1.498629    2.098366    5.366227
  22 H     1.0000    0     1.008    4.740437    2.261116    4.591193
  23 H     1.0000    0     1.008   -0.783762    6.090260   -2.610375
  24 H     1.0000    0     1.008   -0.030499    6.985975    0.519330
  25 H     1.0000    0     1.008    1.982737    4.953563   -1.204726
  26 H     1.0000    0     1.008    0.192880   -5.273536    0.873145
  27 H     1.0000    0     1.008   -5.114924    1.303887    4.757385
  28 H     1.0000    0     1.008    4.984984   -1.431785   -3.623097
  29 H     1.0000    0     1.008   -3.892498   -2.189700   -1.882350

--------------------------------
INTERNAL COORDINATES (ANGSTROEM)
--------------------------------
 O      0   0   0     0.000000000000     0.00000000     0.00000000
 O      1   0   0     3.765819127818     0.00000000     0.00000000
 O      2   1   0     3.815677569498    73.65168639     0.00000000
 O      2   1   3     4.531874672001   109.31767496    75.55004113
 N      3   2   1     2.277388371753    64.65924669    71.94596430
 N      4   2   1     2.279562143252    61.35569592    58.60203786
 N      1   2   3     2.260971334741    54.14448153   359.09158589
 N      2   1   3     2.259227181670   111.78593786    78.40117955
 C      1   2   3     2.375250513985    63.29076722   284.74099249
 C      2   1   3     2.375756551831    70.76686006   126.85375250
 C      9   1   2     1.341379316041   141.91670640    70.69567008
 C     10   2   1     1.336702947243   142.35495264   225.37940554
 C      9   1   2     1.496925396673    93.21165539   231.68304165
 C     10   2   1     1.497001378142    93.19101291    59.79066822
 C      1   2   3     1.213702648022    52.19089259   318.89017032
 C      2   1   3     1.211293550619    90.57447861   103.41929477
 C      3   2   1     1.208186101294    53.03802007    38.67841205
 C      4   2   1     1.212198903761    31.19216673    62.55896783
 H     11   9   1     1.079938800667   122.06770007   168.23354795
 H     12  10   2     1.078903453680   122.27540244   189.38777702
 H     13   9   1     1.084757242581   111.84476472    52.74494325
 H     13   9   1     1.087825914721   110.51776820   174.60654910
 H     13   9   1     1.089113587561   109.89408039   294.23373913
 H     14  10   2     1.088411319409   109.82478373    54.62128839
 H     14  10   2     1.087861551896   110.43295354   174.46184237
 H     14  10   2     1.086015983004   111.92582452   295.82995134
 H      5   3   2     1.004294816615    89.28761919   120.71024527
 H      6   4   2     1.003851522135    89.10371276   179.52219210
 H      7   1   2     1.007542533552    88.99283860    99.76999806
 H      8   2   1     1.008036204466    88.62516100   235.00578470

---------------------------
INTERNAL COORDINATES (A.U.)
---------------------------
 O      0   0   0     0.000000000000     0.00000000     0.00000000
 O      1   0   0     7.116366821459     0.00000000     0.00000000
 O      2   1   0     7.210585621698    73.65168639     0.00000000
 O      2   1   3     8.564002003336   109.31767496    75.55004113
 N      3   2   1     4.303640323191    64.65924669    71.94596430
 N      4   2   1     4.307748156002    61.35569592    58.60203786
 N      1   2   3     4.272616619307    54.14448153   359.09158589
 N      2   1   3     4.269320647667   111.78593786    78.40117955
 C      1   2   3     4.488572970888    63.29076722   284.74099249
 C      2   1   3     4.489529243830    70.76686006   126.85375250
 C      9   1   2     2.534839549023   141.91670640    70.69567008
 C     10   2   1     2.526002492694   142.35495264   225.37940554
 C      9   1   2     2.828779042623    93.21165539   231.68304165
 C     10   2   1     2.828922626791    93.19101291    59.79066822
 C      1   2   3     2.293565612777    52.19089259   318.89017032
 C      2   1   3     2.289013078456    90.57447861   103.41929477
 C      3   2   1     2.283140850256    53.03802007    38.67841205
 C      4   2   1     2.290723947947    31.19216673    62.55896783
 H     11   9   1     2.040788574657   122.06770007   168.23354795
 H     12  10   2     2.038832052397   122.27540244   189.38777702
 H     13   9   1     2.049894110265   111.84476472    52.74494325
 H     13   9   1     2.055693060206   110.51776820   174.60654910
 H     13   9   1     2.058126409222   109.89408039   294.23373913
 H     14  10   2     2.056799314744   109.82478373    54.62128839
 H     14  10   2     2.055760404706   110.43295354   174.46184237
 H     14  10   2     2.052272784940   111.92582452   295.82995134
 H      5   3   2     1.897842161119    89.28761919   120.71024527
 H      6   4   2     1.897004455954    89.10371276   179.52219210
 H      7   1   2     1.903979456690    88.99283860    99.76999806
 H      8   2   1     1.904912359519    88.62516100   235.00578470

---------------------
BASIS SET INFORMATION
---------------------
There are 4 groups of distinct atoms

 Group   1 Type O   : 12s7p3d1f contracted to 6s4p3d1f pattern {621111/4111/111/1}
 Group   2 Type N   : 12s6p3d1f contracted to 6s3p3d1f pattern {621111/411/111/1}
 Group   3 Type C   : 12s6p3d1f contracted to 6s3p3d1f pattern {621111/411/111/1}
 Group   4 Type H   : 5s3p1d contracted to 3s3p1d pattern {311/111/1}

Atom   0O    basis set group =>   1
Atom   1O    basis set group =>   1
Atom   2O    basis set group =>   1
Atom   3O    basis set group =>   1
Atom   4N    basis set group =>   2
Atom   5N    basis set group =>   2
Atom   6N    basis set group =>   2
Atom   7N    basis set group =>   2
Atom   8C    basis set group =>   3
Atom   9C    basis set group =>   3
Atom  10C    basis set group =>   3
Atom  11C    basis set group =>   3
Atom  12C    basis set group =>   3
Atom  13C    basis set group =>   3
Atom  14C    basis set group =>   3
Atom  15C    basis set group =>   3
Atom  16C    basis set group =>   3
Atom  17C    basis set group =>   3
Atom  18H    basis set group =>   4
Atom  19H    basis set group =>   4
Atom  20H    basis set group =>   4
Atom  21H    basis set group =>   4
Atom  22H    basis set group =>   4
Atom  23H    basis set group =>   4
Atom  24H    basis set group =>   4
Atom  25H    basis set group =>   4
Atom  26H    basis set group =>   4
Atom  27H    basis set group =>   4
Atom  28H    basis set group =>   4
Atom  29H    basis set group =>   4
---------------------------------
AUXILIARY/J BASIS SET INFORMATION
---------------------------------
There are 4 groups of distinct atoms

 Group   1 Type O   : 12s5p4d2f1g contracted to 6s4p3d1f1g pattern {711111/2111/211/2/1}
 Group   2 Type N   : 12s5p4d2f1g contracted to 6s4p3d1f1g pattern {711111/2111/211/2/1}
 Group   3 Type C   : 12s5p4d2f1g contracted to 6s4p3d1f1g pattern {711111/2111/211/2/1}
 Group   4 Type H   : 5s2p1d contracted to 3s1p1d pattern {311/2/1}

Atom   0O    basis set group =>   1
Atom   1O    basis set group =>   1
Atom   2O    basis set group =>   1
Atom   3O    basis set group =>   1
Atom   4N    basis set group =>   2
Atom   5N    basis set group =>   2
Atom   6N    basis set group =>   2
Atom   7N    basis set group =>   2
Atom   8C    basis set group =>   3
Atom   9C    basis set group =>   3
Atom  10C    basis set group =>   3
Atom  11C    basis set group =>   3
Atom  12C    basis set group =>   3
Atom  13C    basis set group =>   3
Atom  14C    basis set group =>   3
Atom  15C    basis set group =>   3
Atom  16C    basis set group =>   3
Atom  17C    basis set group =>   3
Atom  18H    basis set group =>   4
Atom  19H    basis set group =>   4
Atom  20H    basis set group =>   4
Atom  21H    basis set group =>   4
Atom  22H    basis set group =>   4
Atom  23H    basis set group =>   4
Atom  24H    basis set group =>   4
Atom  25H    basis set group =>   4
Atom  26H    basis set group =>   4
Atom  27H    basis set group =>   4
Atom  28H    basis set group =>   4
Atom  29H    basis set group =>   4
[1738798276.053066] [ohm:2999416:0]        ib_iface.c:1059 UCX  ERROR ibv_create_cq(cqe=256) failed: Connection timed out
[1738798276.058216] [ohm:2999412:0]        ib_iface.c:1059 UCX  ERROR ibv_create_cq(cqe=256) failed: Connection timed out
[1738798276.066588] [ohm:2999411:0]        ib_iface.c:1059 UCX  ERROR ibv_create_cq(cqe=256) failed: Connection timed out
[1738798276.085739] [ohm:2999414:0]        ib_iface.c:1059 UCX  ERROR ibv_create_cq(cqe=256) failed: Connection timed out
[1738798276.105228] [ohm:2999418:0]        ib_iface.c:1059 UCX  ERROR ibv_create_cq(cqe=256) failed: Connection timed out
[1738798276.109031] [ohm:2999419:0]        ib_iface.c:1059 UCX  ERROR ibv_create_cq(cqe=256) failed: Connection timed out
[1738798276.117077] [ohm:2999421:0]        ib_iface.c:1059 UCX  ERROR ibv_create_cq(cqe=256) failed: Connection timed out
[1738798276.117874] [ohm:2999420:0]        ib_iface.c:1059 UCX  ERROR ibv_create_cq(cqe=256) failed: Connection timed out
[1738798276.119970] [ohm:2999415:0]        ib_iface.c:1059 UCX  ERROR ibv_create_cq(cqe=256) failed: Connection timed out
[1738798276.121647] [ohm:2999413:0]        ib_iface.c:1059 UCX  ERROR ibv_create_cq(cqe=256) failed: Connection timed out
[1738798276.131722] [ohm:2999426:0]        ib_iface.c:1059 UCX  ERROR ibv_create_cq(cqe=256) failed: Connection timed out
[1738798276.153275] [ohm:2999481:0]        ib_iface.c:1059 UCX  ERROR ibv_create_cq(cqe=256) failed: Connection timed out
[1738798276.153555] [ohm:2999425:0]        ib_iface.c:1059 UCX  ERROR ibv_create_cq(cqe=256) failed: Connection timed out
[1738798276.158991] [ohm:2999524:0]        ib_iface.c:1059 UCX  ERROR ibv_create_cq(cqe=256) failed: Connection timed out
[1738798276.162935] [ohm:2999513:0]        ib_iface.c:1059 UCX  ERROR ibv_create_cq(cqe=256) failed: Connection timed out
[1738798276.163489] [ohm:2999422:0]        ib_iface.c:1059 UCX  ERROR ibv_create_cq(cqe=256) failed: Connection timed out
[1738798276.171286] [ohm:2999445:0]        ib_iface.c:1059 UCX  ERROR ibv_create_cq(cqe=256) failed: Connection timed out
[1738798276.175521] [ohm:2999500:0]        ib_iface.c:1059 UCX  ERROR ibv_create_cq(cqe=256) failed: Connection timed out
[1738798276.178887] [ohm:2999423:0]        ib_iface.c:1059 UCX  ERROR ibv_create_cq(cqe=256) failed: Connection timed out
[1738798276.179488] [ohm:2999428:0]        ib_iface.c:1059 UCX  ERROR ibv_create_cq(cqe=256) failed: Connection timed out
[1738798276.181051] [ohm:2999417:0]        ib_iface.c:1059 UCX  ERROR ibv_create_cq(cqe=256) failed: Connection timed out
[1738798276.202023] [ohm:2999490:0]        ib_iface.c:1059 UCX  ERROR ibv_create_cq(cqe=256) failed: Connection timed out
[1738798276.216417] [ohm:2999547:0]        ib_iface.c:1059 UCX  ERROR ibv_create_cq(cqe=256) failed: Connection timed out
[1738798276.218474] [ohm:2999469:0]        ib_iface.c:1059 UCX  ERROR ibv_create_cq(cqe=256) failed: Connection timed out
[1738798276.221774] [ohm:2999449:0]        ib_iface.c:1059 UCX  ERROR ibv_create_cq(cqe=256) failed: Connection timed out
[1738798276.230701] [ohm:2999538:0]        ib_iface.c:1059 UCX  ERROR ibv_create_cq(cqe=256) failed: Connection timed out
[1738798276.230817] [ohm:2999498:0]        ib_iface.c:1059 UCX  ERROR ibv_create_cq(cqe=256) failed: Connection timed out
[1738798276.236181] [ohm:2999476:0]        ib_iface.c:1059 UCX  ERROR ibv_create_cq(cqe=256) failed: Connection timed out
[1738798276.241625] [ohm:2999477:0]        ib_iface.c:1059 UCX  ERROR ibv_create_cq(cqe=256) failed: Connection timed out
[1738798276.250614] [ohm:2999473:0]        ib_iface.c:1059 UCX  ERROR ibv_create_cq(cqe=256) failed: Connection timed out
[1738798276.252807] [ohm:2999480:0]        ib_iface.c:1059 UCX  ERROR ibv_create_cq(cqe=256) failed: Connection timed out
[1738798276.266713] [ohm:2999503:0]        ib_iface.c:1059 UCX  ERROR ibv_create_cq(cqe=256) failed: Connection timed out
[1738798276.267075] [ohm:2999486:0]        ib_iface.c:1059 UCX  ERROR ibv_create_cq(cqe=256) failed: Connection timed out
[1738798276.271491] [ohm:2999462:0]        ib_iface.c:1059 UCX  ERROR ibv_create_cq(cqe=256) failed: Connection timed out
[1738798276.274298] [ohm:2999507:0]        ib_iface.c:1059 UCX  ERROR ibv_create_cq(cqe=256) failed: Connection timed out
[1738798276.275375] [ohm:2999508:0]        ib_iface.c:1059 UCX  ERROR ibv_create_cq(cqe=256) failed: Connection timed out
[1738798276.300338] [ohm:2999474:0]        ib_iface.c:1059 UCX  ERROR ibv_create_cq(cqe=256) failed: Connection timed out
[1738798276.300955] [ohm:2999541:0]        ib_iface.c:1059 UCX  ERROR ibv_create_cq(cqe=256) failed: Connection timed out
[1738798276.301135] [ohm:2999447:0]        ib_iface.c:1059 UCX  ERROR ibv_create_cq(cqe=256) failed: Connection timed out
[1738798276.302627] [ohm:2999556:0]        ib_iface.c:1059 UCX  ERROR ibv_create_cq(cqe=256) failed: Connection timed out
[1738798276.304760] [ohm:2999444:0]        ib_iface.c:1059 UCX  ERROR ibv_create_cq(cqe=256) failed: Connection timed out
[1738798276.307990] [ohm:2999443:0]        ib_iface.c:1059 UCX  ERROR ibv_create_cq(cqe=256) failed: Connection timed out
[1738798276.318925] [ohm:2999553:0]        ib_iface.c:1059 UCX  ERROR ibv_create_cq(cqe=256) failed: Connection timed out
[1738798276.321814] [ohm:2999472:0]        ib_iface.c:1059 UCX  ERROR ibv_create_cq(cqe=256) failed: Connection timed out
[1738798276.323282] [ohm:2999531:0]        ib_iface.c:1059 UCX  ERROR ibv_create_cq(cqe=256) failed: Connection timed out
[1738798276.327206] [ohm:2999521:0]        ib_iface.c:1059 UCX  ERROR ibv_create_cq(cqe=256) failed: Connection timed out
[1738798276.334084] [ohm:2999451:0]        ib_iface.c:1059 UCX  ERROR ibv_create_cq(cqe=256) failed: Connection timed out
[1738798276.335981] [ohm:2999475:0]        ib_iface.c:1059 UCX  ERROR ibv_create_cq(cqe=256) failed: Connection timed out
[1738798276.337309] [ohm:2999441:0]        ib_iface.c:1059 UCX  ERROR ibv_create_cq(cqe=256) failed: Connection timed out
[1738798276.343701] [ohm:2999492:0]        ib_iface.c:1059 UCX  ERROR ibv_create_cq(cqe=256) failed: Connection timed out
[1738798276.353027] [ohm:2999549:0]        ib_iface.c:1059 UCX  ERROR ibv_create_cq(cqe=256) failed: Connection timed out
[1738798276.354529] [ohm:2999467:0]        ib_iface.c:1059 UCX  ERROR ibv_create_cq(cqe=256) failed: Connection timed out
[1738798276.361669] [ohm:2999485:0]        ib_iface.c:1059 UCX  ERROR ibv_create_cq(cqe=256) failed: Connection timed out
[1738798276.362528] [ohm:2999478:0]        ib_iface.c:1059 UCX  ERROR ibv_create_cq(cqe=256) failed: Connection timed out
[1738798276.365128] [ohm:2999454:0]        ib_iface.c:1059 UCX  ERROR ibv_create_cq(cqe=256) failed: Connection timed out
[1738798276.366741] [ohm:2999458:0]        ib_iface.c:1059 UCX  ERROR ibv_create_cq(cqe=256) failed: Connection timed out
[1738798276.367153] [ohm:2999535:0]        ib_iface.c:1059 UCX  ERROR ibv_create_cq(cqe=256) failed: Connection timed out
[1738798276.372318] [ohm:2999558:0]        ib_iface.c:1059 UCX  ERROR ibv_create_cq(cqe=256) failed: Connection timed out
[1738798276.372847] [ohm:2999517:0]        ib_iface.c:1059 UCX  ERROR ibv_create_cq(cqe=256) failed: Connection timed out
[1738798276.374516] [ohm:2999528:0]        ib_iface.c:1059 UCX  ERROR ibv_create_cq(cqe=256) failed: Connection timed out
[1738798276.374858] [ohm:2999483:0]        ib_iface.c:1059 UCX  ERROR ibv_create_cq(cqe=256) failed: Connection timed out
[1738798276.375686] [ohm:2999442:0]        ib_iface.c:1059 UCX  ERROR ibv_create_cq(cqe=256) failed: Connection timed out
[1738798276.375682] [ohm:2999533:0]        ib_iface.c:1059 UCX  ERROR ibv_create_cq(cqe=256) failed: Connection timed out
[1738798276.376282] [ohm:2999542:0]        ib_iface.c:1059 UCX  ERROR ibv_create_cq(cqe=256) failed: Connection timed out


           ************************************************************
           *        Program running with 64 parallel MPI-processes    *
           *              working on a common directory               *
           ************************************************************
------------------------------------------------------------------------------
                             ORCA STARTUP CALCULATIONS
                           -- RI-GTO INTEGRALS CHOSEN --
------------------------------------------------------------------------------
------------------------------------------------------------------------------
                   ___                                                        
                  /   \      - P O W E R E D   B Y -                         
                 /     \                                                     
                 |  |  |   _    _      __       _____    __    __             
                 |  |  |  | |  | |    /  \     |  _  \  |  |  /  |          
                  \  \/   | |  | |   /    \    | | | |  |  | /  /          
                 / \  \   | |__| |  /  /\  \   | |_| |  |  |/  /          
                |  |  |   |  __  | /  /__\  \  |    /   |      \           
                |  |  |   | |  | | |   __   |  |    \   |  |\   \          
                \     /   | |  | | |  |  |  |  | |\  \  |  | \   \       
                 \___/    |_|  |_| |__|  |__|  |_| \__\ |__|  \__/        
                                                                              
                      - O R C A' S   B I G   F R I E N D -                    
                                      &                                       
                       - I N T E G R A L  F E E D E R -                       
                                                                              
 v1 FN, 2020, v2 2021, v3 2022-2024                                           
------------------------------------------------------------------------------


----------------------
SHARK INTEGRAL PACKAGE
----------------------

Number of atoms                             ...     30
Number of basis functions                   ...    882
Number of shells                            ...    322
Maximum angular momentum                    ...      3
Integral batch strategy                     ... SHARK/LIBINT Hybrid
RI-J (if used) integral strategy            ... SPLIT-RIJ (Revised 2003 algorithm where possible)
Printlevel                                  ...      1
Contraction scheme used                     ... SEGMENTED contraction
Prescreening option                         ... SCHWARTZ
   Thresh                                   ... 2.500e-11
   Tcut                                     ... 2.500e-12
   Tpresel                                  ... 2.500e-12 
Coulomb Range Separation                    ... NOT USED
Exchange Range Separation                   ... Long Range
   Mu parameter                             ... 3.000e-01
   Scaling (regular/separated)              ... 1.500e-01 8.500e-01
Multipole approximations                    ... NOT USED
Finite Nucleus Model                        ... NOT USED
CABS basis                                  ... NOT available
Auxiliary Coulomb fitting basis             ... AVAILABLE
   # of basis functions in Aux-J            ...   1014
   # of shells in Aux-J                     ...    330
   Maximum angular momentum in Aux-J        ...      4
Auxiliary J/K fitting basis                 ... NOT available
Auxiliary Correlation fitting basis         ... NOT available
Auxiliary 'external' fitting basis          ... NOT available

Checking pre-screening integrals            ... done (  0.0 sec) Dimension = 322
Check shell pair data                       ... done (  0.0 sec)
Shell pair information
Shell pair cut-off parameter TPreSel        ...   2.5e-12
Total number of shell pairs                 ...     52003
Shell pairs after pre-screening             ...     45256
Total number of primitive shell pairs       ...    129718
Primitive shell pairs kept                  ...     84601
          la=0 lb=0:   8759 shell pairs
          la=1 lb=0:  11967 shell pairs
          la=1 lb=1:   4134 shell pairs
          la=2 lb=0:   8133 shell pairs
          la=2 lb=1:   5616 shell pairs
          la=2 lb=2:   1942 shell pairs
          la=3 lb=0:   2078 shell pairs
          la=3 lb=1:   1480 shell pairs
          la=3 lb=2:   1006 shell pairs
          la=3 lb=3:    141 shell pairs

Calculating one electron integrals          ... done (  0.2 sec)
Calculating RI/J V-Matrix + Cholesky decomp.... done (  0.1 sec)
Calculating Nuclear repulsion               ... done (  0.0 sec) ENN=   1447.377376079726 Eh

Diagonalization of the overlap matrix:
Smallest eigenvalue                        ... 3.571e-07
Time for diagonalization                   ...    0.126 sec
Threshold for overlap eigenvalues          ... 1.000e-07
Number of eigenvalues below threshold      ... 0

IMPORTANT:
Smallest eigenvalue of S below the DiffSThresh (1.000e-06) while
Thresh>1e-12 and/or TCut>1e-13! In order to avoid SCF convergence issues,
Thresh will be set to at least 1e-12 and TCut to at least 1e-13.
This can be turned off by adding %SCF DiffSThresh -1 END to the input.

Time for construction of square roots      ...    0.127 sec
Total time needed                          ...    0.269 sec

-------------------
DFT GRID GENERATION
-------------------

General Integration Accuracy     IntAcc      ... 4.388
Radial Grid Type                 RadialGrid  ... OptM3 with GC (2021)
Angular Grid (max. ang.)         AngularGrid ... 4 (Lebedev-302)
Angular grid pruning method      GridPruning ... 4 (adaptive)
Weight generation scheme         WeightScheme... mBecke (2022)
Basis function cutoff            BFCut       ... 1.0000e-11
Integration weight cutoff        WCut        ... 1.0000e-14
Partially contracted basis set               ... off
Rotationally invariant grid construction     ... off
Angular grids for H and He will be reduced by one unit
Diffuse basis detected: some atoms will have their outermost
                        angular grid increased by 1.

Total number of grid points                  ...   152005
Total number of batches                      ...     2390
Average number of points per batch           ...       63
Average number of grid points per atom       ...     5067

--------------------
COSX GRID GENERATION
--------------------

GRIDX 1
-------
General Integration Accuracy     IntAcc      ... 3.816
Radial Grid Type                 RadialGrid  ... OptM3 with GC (2021)
Angular Grid (max. ang.)         AngularGrid ... 1 (Lebedev-50)
Angular grid pruning method      GridPruning ... 4 (adaptive)
Weight generation scheme         WeightScheme... mBecke (2022)
Basis function cutoff            BFCut       ... 1.0000e-11
Integration weight cutoff        WCut        ... 1.0000e-14
Partially contracted basis set               ... on
Rotationally invariant grid construction     ... off
Angular grids for H and He will be reduced by one unit
Diffuse basis detected: some atoms will have their outermost
                        angular grid increased by 1.

Total number of grid points                  ...    19016
Total number of batches                      ...      165
Average number of points per batch           ...      115
Average number of grid points per atom       ...      634
UseSFitting                                  ... on

GRIDX 2
-------
General Integration Accuracy     IntAcc      ... 4.020
Radial Grid Type                 RadialGrid  ... OptM3 with GC (2021)
Angular Grid (max. ang.)         AngularGrid ... 2 (Lebedev-110)
Angular grid pruning method      GridPruning ... 4 (adaptive)
Weight generation scheme         WeightScheme... mBecke (2022)
Basis function cutoff            BFCut       ... 1.0000e-11
Integration weight cutoff        WCut        ... 1.0000e-14
Partially contracted basis set               ... on
Rotationally invariant grid construction     ... off
Angular grids for H and He will be reduced by one unit
Diffuse basis detected: some atoms will have their outermost
                        angular grid increased by 1.

Total number of grid points                  ...    45852
Total number of batches                      ...      374
Average number of points per batch           ...      122
Average number of grid points per atom       ...     1528
UseSFitting                                  ... on

GRIDX 3
-------
General Integration Accuracy     IntAcc      ... 4.338
Radial Grid Type                 RadialGrid  ... OptM3 with GC (2021)
Angular Grid (max. ang.)         AngularGrid ... 3 (Lebedev-194)
Angular grid pruning method      GridPruning ... 4 (adaptive)
Weight generation scheme         WeightScheme... mBecke (2022)
Basis function cutoff            BFCut       ... 1.0000e-11
Integration weight cutoff        WCut        ... 1.0000e-14
Partially contracted basis set               ... on
Rotationally invariant grid construction     ... off
Angular grids for H and He will be reduced by one unit
Diffuse basis detected: some atoms will have their outermost
                        angular grid increased by 1.

Total number of grid points                  ...   100898
Total number of batches                      ...      803
Average number of points per batch           ...      125
Average number of grid points per atom       ...     3363
UseSFitting                                  ... on
Initializing property integral containers    ... done (  0.0 sec)

SHARK setup successfully completed in   4.2 seconds

Maximum memory used throughout the entire STARTUP-calculation: 80.3 MB
[1738798282.372675] [ohm:2999756:0]        ib_iface.c:1059 UCX  ERROR ibv_create_cq(cqe=256) failed: Connection timed out
[1738798282.391334] [ohm:2999757:0]        ib_iface.c:1059 UCX  ERROR ibv_create_cq(cqe=256) failed: Connection timed out
[1738798282.394399] [ohm:2999755:0]        ib_iface.c:1059 UCX  ERROR ibv_create_cq(cqe=256) failed: Connection timed out
[1738798282.423178] [ohm:2999752:0]        ib_iface.c:1059 UCX  ERROR ibv_create_cq(cqe=256) failed: Connection timed out
[1738798282.423776] [ohm:2999753:0]        ib_iface.c:1059 UCX  ERROR ibv_create_cq(cqe=256) failed: Connection timed out
[1738798282.426398] [ohm:2999754:0]        ib_iface.c:1059 UCX  ERROR ibv_create_cq(cqe=256) failed: Connection timed out
[1738798282.451490] [ohm:2999758:0]        ib_iface.c:1059 UCX  ERROR ibv_create_cq(cqe=256) failed: Connection timed out
[1738798282.451677] [ohm:2999762:0]        ib_iface.c:1059 UCX  ERROR ibv_create_cq(cqe=256) failed: Connection timed out
[1738798282.460303] [ohm:2999760:0]        ib_iface.c:1059 UCX  ERROR ibv_create_cq(cqe=256) failed: Connection timed out
[1738798282.461374] [ohm:2999877:0]        ib_iface.c:1059 UCX  ERROR ibv_create_cq(cqe=256) failed: Connection timed out
[1738798282.474149] [ohm:2999777:0]        ib_iface.c:1059 UCX  ERROR ibv_create_cq(cqe=256) failed: Connection timed out
[1738798282.479166] [ohm:2999763:0]        ib_iface.c:1059 UCX  ERROR ibv_create_cq(cqe=256) failed: Connection timed out
[1738798282.481859] [ohm:2999895:0]        ib_iface.c:1059 UCX  ERROR ibv_create_cq(cqe=256) failed: Connection timed out
[1738798282.489615] [ohm:2999781:0]        ib_iface.c:1059 UCX  ERROR ibv_create_cq(cqe=256) failed: Connection timed out
[1738798282.489922] [ohm:2999808:0]        ib_iface.c:1059 UCX  ERROR ibv_create_cq(cqe=256) failed: Connection timed out
[1738798282.490472] [ohm:2999884:0]        ib_iface.c:1059 UCX  ERROR ibv_create_cq(cqe=256) failed: Connection timed out
[1738798282.499589] [ohm:2999822:0]        ib_iface.c:1059 UCX  ERROR ibv_create_cq(cqe=256) failed: Connection timed out
[1738798282.502002] [ohm:2999778:0]        ib_iface.c:1059 UCX  ERROR ibv_create_cq(cqe=256) failed: Connection timed out
[1738798282.558171] [ohm:2999819:0]        ib_iface.c:1059 UCX  ERROR ibv_create_cq(cqe=256) failed: Connection timed out
[1738798282.559419] [ohm:2999785:0]        ib_iface.c:1059 UCX  ERROR ibv_create_cq(cqe=256) failed: Connection timed out
[1738798282.561339] [ohm:2999773:0]        ib_iface.c:1059 UCX  ERROR ibv_create_cq(cqe=256) failed: Connection timed out
[1738798282.572798] [ohm:2999870:0]        ib_iface.c:1059 UCX  ERROR ibv_create_cq(cqe=256) failed: Connection timed out
[1738798282.579593] [ohm:2999889:0]        ib_iface.c:1059 UCX  ERROR ibv_create_cq(cqe=256) failed: Connection timed out
[1738798282.621029] [ohm:2999882:0]        ib_iface.c:1059 UCX  ERROR ibv_create_cq(cqe=256) failed: Connection timed out
[1738798282.622348] [ohm:2999771:0]        ib_iface.c:1059 UCX  ERROR ibv_create_cq(cqe=256) failed: Connection timed out
[1738798282.627871] [ohm:2999759:0]        ib_iface.c:1059 UCX  ERROR ibv_create_cq(cqe=256) failed: Connection timed out
[1738798282.628685] [ohm:2999768:0]        ib_iface.c:1059 UCX  ERROR ibv_create_cq(cqe=256) failed: Connection timed out
[1738798282.628775] [ohm:2999764:0]        ib_iface.c:1059 UCX  ERROR ibv_create_cq(cqe=256) failed: Connection timed out
[1738798282.628949] [ohm:2999857:0]        ib_iface.c:1059 UCX  ERROR ibv_create_cq(cqe=256) failed: Connection timed out
[1738798282.628979] [ohm:2999811:0]        ib_iface.c:1059 UCX  ERROR ibv_create_cq(cqe=256) failed: Connection timed out
[1738798282.632027] [ohm:2999783:0]        ib_iface.c:1059 UCX  ERROR ibv_create_cq(cqe=256) failed: Connection timed out
[1738798282.633666] [ohm:2999842:0]        ib_iface.c:1059 UCX  ERROR ibv_create_cq(cqe=256) failed: Connection timed out
[1738798282.640229] [ohm:2999774:0]        ib_iface.c:1059 UCX  ERROR ibv_create_cq(cqe=256) failed: Connection timed out
[1738798282.642038] [ohm:2999839:0]        ib_iface.c:1059 UCX  ERROR ibv_create_cq(cqe=256) failed: Connection timed out
[1738798282.655493] [ohm:2999900:0]        ib_iface.c:1059 UCX  ERROR ibv_create_cq(cqe=256) failed: Connection timed out
[1738798282.660305] [ohm:2999789:0]        ib_iface.c:1059 UCX  ERROR ibv_create_cq(cqe=256) failed: Connection timed out
[1738798282.660717] [ohm:2999864:0]        ib_iface.c:1059 UCX  ERROR ibv_create_cq(cqe=256) failed: Connection timed out
[1738798282.666882] [ohm:2999799:0]        ib_iface.c:1059 UCX  ERROR ibv_create_cq(cqe=256) failed: Connection timed out
[1738798282.668961] [ohm:2999837:0]        ib_iface.c:1059 UCX  ERROR ibv_create_cq(cqe=256) failed: Connection timed out
[1738798282.674676] [ohm:2999815:0]        ib_iface.c:1059 UCX  ERROR ibv_create_cq(cqe=256) failed: Connection timed out
[1738798282.675330] [ohm:2999850:0]        ib_iface.c:1059 UCX  ERROR ibv_create_cq(cqe=256) failed: Connection timed out
[1738798282.678764] [ohm:2999761:0]        ib_iface.c:1059 UCX  ERROR ibv_create_cq(cqe=256) failed: Connection timed out
[1738798282.681111] [ohm:2999860:0]        ib_iface.c:1059 UCX  ERROR ibv_create_cq(cqe=256) failed: Connection timed out
[1738798282.685834] [ohm:2999892:0]        ib_iface.c:1059 UCX  ERROR ibv_create_cq(cqe=256) failed: Connection timed out
[1738798282.691082] [ohm:2999816:0]        ib_iface.c:1059 UCX  ERROR ibv_create_cq(cqe=256) failed: Connection timed out
[1738798282.693385] [ohm:2999805:0]        ib_iface.c:1059 UCX  ERROR ibv_create_cq(cqe=256) failed: Connection timed out
[1738798282.701192] [ohm:2999866:0]        ib_iface.c:1059 UCX  ERROR ibv_create_cq(cqe=256) failed: Connection timed out
[1738798282.705078] [ohm:2999834:0]        ib_iface.c:1059 UCX  ERROR ibv_create_cq(cqe=256) failed: Connection timed out
[1738798282.706516] [ohm:2999849:0]        ib_iface.c:1059 UCX  ERROR ibv_create_cq(cqe=256) failed: Connection timed out
[1738798282.710091] [ohm:2999793:0]        ib_iface.c:1059 UCX  ERROR ibv_create_cq(cqe=256) failed: Connection timed out
[1738798282.711194] [ohm:2999790:0]        ib_iface.c:1059 UCX  ERROR ibv_create_cq(cqe=256) failed: Connection timed out
[1738798282.711600] [ohm:2999813:0]        ib_iface.c:1059 UCX  ERROR ibv_create_cq(cqe=256) failed: Connection timed out
[1738798282.712568] [ohm:2999780:0]        ib_iface.c:1059 UCX  ERROR ibv_create_cq(cqe=256) failed: Connection timed out
[1738798282.713449] [ohm:2999826:0]        ib_iface.c:1059 UCX  ERROR ibv_create_cq(cqe=256) failed: Connection timed out
[1738798282.713682] [ohm:2999796:0]        ib_iface.c:1059 UCX  ERROR ibv_create_cq(cqe=256) failed: Connection timed out
[1738798282.715776] [ohm:2999809:0]        ib_iface.c:1059 UCX  ERROR ibv_create_cq(cqe=256) failed: Connection timed out
[1738798282.716264] [ohm:2999875:0]        ib_iface.c:1059 UCX  ERROR ibv_create_cq(cqe=256) failed: Connection timed out
[1738798282.718623] [ohm:2999897:0]        ib_iface.c:1059 UCX  ERROR ibv_create_cq(cqe=256) failed: Connection timed out
[1738798282.719124] [ohm:2999812:0]        ib_iface.c:1059 UCX  ERROR ibv_create_cq(cqe=256) failed: Connection timed out
[1738798282.721164] [ohm:2999871:0]        ib_iface.c:1059 UCX  ERROR ibv_create_cq(cqe=256) failed: Connection timed out
[1738798282.721705] [ohm:2999843:0]        ib_iface.c:1059 UCX  ERROR ibv_create_cq(cqe=256) failed: Connection timed out
[1738798282.721995] [ohm:2999830:0]        ib_iface.c:1059 UCX  ERROR ibv_create_cq(cqe=256) failed: Connection timed out
[1738798282.722778] [ohm:2999779:0]        ib_iface.c:1059 UCX  ERROR ibv_create_cq(cqe=256) failed: Connection timed out
[1738798282.724522] [ohm:2999803:0]        ib_iface.c:1059 UCX  ERROR ibv_create_cq(cqe=256) failed: Connection timed out


           ************************************************************
           *        Program running with 64 parallel MPI-processes    *
           *              working on a common directory               *
           ************************************************************
-------------------------------------------------------------------------------
                                 ORCA GUESS
                   Start orbitals & Density for SCF / CASSCF
-------------------------------------------------------------------------------

------------
SCF SETTINGS
------------
Hamiltonian:
 Density Functional     Method          .... DFT(GTOs)
  Functional kind                       .... Exchange-Correlation
  Functional name                       .... wB97M-V exchange-correlation functional
  Functional family                     .... Hybrid MGGA
  Functional refs                              
    [ 0] N. Mardirossian and M. Head-Gordon.,  J. Chem. Phys. 144, 214110 (2016), doi: 10.1063/1.4952647
  Fraction of HF Exchange (short range) .... 0.1500
  Fraction of HF Exchange (long range)  .... 1.0000
  Range separation parameter mu         .... 0.3000
  Functional external parameters        .... 17
    Parameter  0 _cx00      =  8.500000e-01 : u^00 coefficient for exchange
    Parameter  1 _cx01      =  1.007000e+00 : u^01 coefficient for exchange
    Parameter  2 _cx10      =  2.590000e-01 : u^10 coefficient for exchange
    Parameter  3 _css00     =  4.430000e-01 : u^00 coefficient for same-spin correlation
    Parameter  4 _css04     = -1.437000e+00 : u^04 coefficient for same-spin correlation
    Parameter  5 _css10     = -4.535000e+00 : u^10 coefficient for same-spin correlation
    Parameter  6 _css20     = -3.390000e+00 : u^20 coefficient for same-spin correlation
    Parameter  7 _css43     =  4.278000e+00 : u^43 coefficient for same-spin correlation
    Parameter  8 _cos00     =  1.000000e+00 : u^00 coefficient for opposite-spin correlation
    Parameter  9 _cos10     =  1.358000e+00 : u^10 coefficient for opposite-spin correlation
    Parameter 10 _cos20     =  2.924000e+00 : u^20 coefficient for opposite-spin correlation
    Parameter 11 _cos21     = -8.812000e+00 : u^21 coefficient for opposite-spin correlation
    Parameter 12 _cos60     = -1.390000e+00 : u^60 coefficient for opposite-spin correlation
    Parameter 13 _cos61     =  9.142000e+00 : u^61 coefficient for opposite-spin correlation
    Parameter 14 _alpha     =  1.000000e+00 : fraction of HF exchange
    Parameter 15 _beta      = -8.500000e-01 : fraction of short-range exchange
    Parameter 16 _omega     =  3.000000e-01 : range-separation constant
 Long-range corrected/Screened/Range-Separated Hybrid DFT is turned on
   Amount of maximum screened exact exchange              ....  0.850000
   Range separation parameter mu (erf(mu*r12)/r12)        ....  0.300000
 RI-approximation to the Coulomb term is turned on
   Number of AuxJ basis functions       .... 1014
   RIJ-COSX (HFX calculated with COS-X)).... on


General Settings:
 Integral files         IntName         .... orca
 Hartree-Fock type      HFTyp           .... UHF
 Total Charge           Charge          ....    0
 Multiplicity           Mult            ....    3
 Number of Electrons    NEL             ....  132
 Basis Dimension        Dim             ....  882
 Nuclear Repulsion      ENuc            ....   1447.3773760797 Eh

Convergence Acceleration:
 AO-DIIS                CNVDIIS         .... on
   Start iteration      DIISMaxIt       ....    12
   Startup error        DIISStart       ....  0.200000
   # of expansion vecs  DIISMaxEq       ....     5
   Bias factor          DIISBfac        ....   1.050
   Max. coefficient     DIISMaxC        ....  10.000
 MO-DIIS                CNVKDIIS        .... off
 Trust-Rad. Augm. Hess. CNVTRAH         .... auto
   Auto Start mean grad. ratio tolernc. ....  1.125000
   Auto Start start iteration           ....    50
   Auto Start num. interpolation iter.  ....    10
   Max. Number of Micro iterations      ....    24
   Max. Number of Macro iterations      .... Maxiter - #DIIS iter
   Number of Davidson start vectors     ....     2
   Converg. threshold    (grad. norm)   ....   1.000e-05
   Grad. Scal. Fac. for Micro threshold ....   0.100
   Minimum threshold for Micro iter.    ....   1.000e-02
   NR start threshold (gradient norm)   ....   1.000e-04
   Initial trust radius                 ....   0.400
   Minimum AH scaling param. (alpha)    ....   1.000
   Maximum AH scaling param. (alpha)    .... 1000.000
   Quad. conv. algorithm                .... NR
   White noise on init. David. guess    .... on
   Maximum white noise                  ....   0.010
   Pseudo random numbers                .... off
   Inactive MOs                         .... canonical
   Orbital update algorithm             .... Taylor
   Preconditioner                       .... Diag
   Full preconditioner red. dimension   ....   250
 SOSCF                  CNVSOSCF        .... on
   Start iteration      SOSCFMaxIt      ....   150
   Startup grad/error   SOSCFStart      ....  0.003300
   Hessian update       SOSCFHessUp     .... L-BFGS
 Level Shifting         CNVShift        .... on
   Level shift para.    LevelShift      ....    0.2500
   Turn off err/grad.   ShiftErr        ....    0.0010
 Zerner damping         CNVZerner       .... off
 Static damping         CNVDamp         .... on
   Fraction old density DampFac         ....    0.7000
   Max. Damping (<1)    DampMax         ....    0.9800
   Min. Damping (>=0)   DampMin         ....    0.0000
   Turn off err/grad.   DampErr         ....    0.1000

SCF Procedure:
 Maximum # iterations   MaxIter         ....   125
 SCF integral mode      SCFMode         .... Direct
   Integral package                     .... SHARK and LIBINT hybrid scheme
 Reset frequency        DirectResetFreq ....    20
 Integral Threshold     Thresh          ....  1.000e-12 Eh
 Primitive CutOff       TCut            ....  1.000e-13 Eh

Convergence Tolerance:
 Convergence Check Mode ConvCheckMode   .... Total+1el-Energy
 Convergence forced     ConvForced      .... 1
 Energy Change          TolE            ....  1.000e-08 Eh
 1-El. energy change                    ....  1.000e-05 Eh
 Orbital Gradient       TolG            ....  1.000e-05
 Orbital Rotation angle TolX            ....  1.000e-05
 DIIS Error             TolErr          ....  5.000e-07

------------------------------
INITIAL GUESS: MODEL POTENTIAL
------------------------------
Loading Hartree-Fock densities                     ... done
Calculating cut-offs                               ... done
Initializing the effective Hamiltonian             ... done
Setting up the integral package (SHARK)            ... done
Starting the Coulomb interaction                   ... done (   0.1 sec)
Making the grid                                    ... done (   0.2 sec)
Mapping shells                                     ... done
Starting the XC term evaluation                    ... done (   0.1 sec)
  promolecular density results
     # of electrons  =    131.996679085
     EX              =   -113.604342876
     EC              =     -4.489505363
     EX+EC           =   -118.093848238
Transforming the Hamiltonian                       ... done (   0.1 sec)
Diagonalizing the Hamiltonian                      ... done (   0.1 sec)
Back transforming the eigenvectors                 ... done (   0.1 sec)
Now organizing SCF variables                       ... done
                      ------------------
                      INITIAL GUESS DONE (   1.1 sec)
                      ------------------
             **** ENERGY FILE WAS UPDATED (orca.en.tmp) ****
Finished Guess after   3.4 sec
Maximum memory used throughout the entire GUESS-calculation: 72.7 MB
[1738798286.545233] [ohm:3000092:0]        ib_iface.c:1059 UCX  ERROR ibv_create_cq(cqe=256) failed: Connection timed out
[1738798286.553272] [ohm:3000081:0]        ib_iface.c:1059 UCX  ERROR ibv_create_cq(cqe=256) failed: Connection timed out
[1738798286.560301] [ohm:3000083:0]        ib_iface.c:1059 UCX  ERROR ibv_create_cq(cqe=256) failed: Connection timed out
[1738798286.565040] [ohm:3000095:0]        ib_iface.c:1059 UCX  ERROR ibv_create_cq(cqe=256) failed: Connection timed out
[1738798286.573246] [ohm:3000085:0]        ib_iface.c:1059 UCX  ERROR ibv_create_cq(cqe=256) failed: Connection timed out
[1738798286.580611] [ohm:3000099:0]        ib_iface.c:1059 UCX  ERROR ibv_create_cq(cqe=256) failed: Connection timed out
[1738798286.581164] [ohm:3000086:0]        ib_iface.c:1059 UCX  ERROR ibv_create_cq(cqe=256) failed: Connection timed out
[1738798286.588795] [ohm:3000090:0]        ib_iface.c:1059 UCX  ERROR ibv_create_cq(cqe=256) failed: Connection timed out
[1738798286.601862] [ohm:3000088:0]        ib_iface.c:1059 UCX  ERROR ibv_create_cq(cqe=256) failed: Connection timed out
[1738798286.619662] [ohm:3000114:0]        ib_iface.c:1059 UCX  ERROR ibv_create_cq(cqe=256) failed: Connection timed out
[1738798286.628719] [ohm:3000128:0]        ib_iface.c:1059 UCX  ERROR ibv_create_cq(cqe=256) failed: Connection timed out
[1738798286.637002] [ohm:3000131:0]        ib_iface.c:1059 UCX  ERROR ibv_create_cq(cqe=256) failed: Connection timed out
[1738798286.637075] [ohm:3000097:0]        ib_iface.c:1059 UCX  ERROR ibv_create_cq(cqe=256) failed: Connection timed out
[1738798286.666990] [ohm:3000125:0]        ib_iface.c:1059 UCX  ERROR ibv_create_cq(cqe=256) failed: Connection timed out
[1738798286.674561] [ohm:3000215:0]        ib_iface.c:1059 UCX  ERROR ibv_create_cq(cqe=256) failed: Connection timed out
[1738798286.677494] [ohm:3000119:0]        ib_iface.c:1059 UCX  ERROR ibv_create_cq(cqe=256) failed: Connection timed out
[1738798286.680984] [ohm:3000135:0]        ib_iface.c:1059 UCX  ERROR ibv_create_cq(cqe=256) failed: Connection timed out
[1738798286.681043] [ohm:3000152:0]        ib_iface.c:1059 UCX  ERROR ibv_create_cq(cqe=256) failed: Connection timed out
[1738798286.684413] [ohm:3000089:0]        ib_iface.c:1059 UCX  ERROR ibv_create_cq(cqe=256) failed: Connection timed out
[1738798286.688985] [ohm:3000143:0]        ib_iface.c:1059 UCX  ERROR ibv_create_cq(cqe=256) failed: Connection timed out
[1738798286.690506] [ohm:3000110:0]        ib_iface.c:1059 UCX  ERROR ibv_create_cq(cqe=256) failed: Connection timed out
[1738798286.704734] [ohm:3000139:0]        ib_iface.c:1059 UCX  ERROR ibv_create_cq(cqe=256) failed: Connection timed out
[1738798286.705245] [ohm:3000168:0]        ib_iface.c:1059 UCX  ERROR ibv_create_cq(cqe=256) failed: Connection timed out
[1738798286.708610] [ohm:3000176:0]        ib_iface.c:1059 UCX  ERROR ibv_create_cq(cqe=256) failed: Connection timed out
[1738798286.716628] [ohm:3000204:0]        ib_iface.c:1059 UCX  ERROR ibv_create_cq(cqe=256) failed: Connection timed out
[1738798286.716591] [ohm:3000211:0]        ib_iface.c:1059 UCX  ERROR ibv_create_cq(cqe=256) failed: Connection timed out
[1738798286.719854] [ohm:3000096:0]        ib_iface.c:1059 UCX  ERROR ibv_create_cq(cqe=256) failed: Connection timed out
[1738798286.727743] [ohm:3000093:0]        ib_iface.c:1059 UCX  ERROR ibv_create_cq(cqe=256) failed: Connection timed out
[1738798286.728554] [ohm:3000210:0]        ib_iface.c:1059 UCX  ERROR ibv_create_cq(cqe=256) failed: Connection timed out
[1738798286.733701] [ohm:3000217:0]        ib_iface.c:1059 UCX  ERROR ibv_create_cq(cqe=256) failed: Connection timed out
[1738798286.735689] [ohm:3000184:0]        ib_iface.c:1059 UCX  ERROR ibv_create_cq(cqe=256) failed: Connection timed out
[1738798286.740066] [ohm:3000084:0]        ib_iface.c:1059 UCX  ERROR ibv_create_cq(cqe=256) failed: Connection timed out
[1738798286.748699] [ohm:3000157:0]        ib_iface.c:1059 UCX  ERROR ibv_create_cq(cqe=256) failed: Connection timed out
[1738798286.760305] [ohm:3000202:0]        ib_iface.c:1059 UCX  ERROR ibv_create_cq(cqe=256) failed: Connection timed out
[1738798286.771740] [ohm:3000147:0]        ib_iface.c:1059 UCX  ERROR ibv_create_cq(cqe=256) failed: Connection timed out
[1738798286.778308] [ohm:3000223:0]        ib_iface.c:1059 UCX  ERROR ibv_create_cq(cqe=256) failed: Connection timed out
[1738798286.781516] [ohm:3000154:0]        ib_iface.c:1059 UCX  ERROR ibv_create_cq(cqe=256) failed: Connection timed out
[1738798286.784657] [ohm:3000220:0]        ib_iface.c:1059 UCX  ERROR ibv_create_cq(cqe=256) failed: Connection timed out
[1738798286.786823] [ohm:3000109:0]        ib_iface.c:1059 UCX  ERROR ibv_create_cq(cqe=256) failed: Connection timed out
[1738798286.799491] [ohm:3000122:0]        ib_iface.c:1059 UCX  ERROR ibv_create_cq(cqe=256) failed: Connection timed out
[1738798286.805817] [ohm:3000175:0]        ib_iface.c:1059 UCX  ERROR ibv_create_cq(cqe=256) failed: Connection timed out
[1738798286.806076] [ohm:3000230:0]        ib_iface.c:1059 UCX  ERROR ibv_create_cq(cqe=256) failed: Connection timed out
[1738798286.811887] [ohm:3000140:0]        ib_iface.c:1059 UCX  ERROR ibv_create_cq(cqe=256) failed: Connection timed out
[1738798286.817234] [ohm:3000145:0]        ib_iface.c:1059 UCX  ERROR ibv_create_cq(cqe=256) failed: Connection timed out
[1738798286.821887] [ohm:3000233:0]        ib_iface.c:1059 UCX  ERROR ibv_create_cq(cqe=256) failed: Connection timed out
[1738798286.823502] [ohm:3000082:0]        ib_iface.c:1059 UCX  ERROR ibv_create_cq(cqe=256) failed: Connection timed out
[1738798286.825765] [ohm:3000101:0]        ib_iface.c:1059 UCX  ERROR ibv_create_cq(cqe=256) failed: Connection timed out
[1738798286.832801] [ohm:3000116:0]        ib_iface.c:1059 UCX  ERROR ibv_create_cq(cqe=256) failed: Connection timed out
[1738798286.832855] [ohm:3000134:0]        ib_iface.c:1059 UCX  ERROR ibv_create_cq(cqe=256) failed: Connection timed out
[1738798286.833212] [ohm:3000104:0]        ib_iface.c:1059 UCX  ERROR ibv_create_cq(cqe=256) failed: Connection timed out
[1738798286.845970] [ohm:3000161:0]        ib_iface.c:1059 UCX  ERROR ibv_create_cq(cqe=256) failed: Connection timed out
[1738798286.846122] [ohm:3000181:0]        ib_iface.c:1059 UCX  ERROR ibv_create_cq(cqe=256) failed: Connection timed out
[1738798286.847698] [ohm:3000141:0]        ib_iface.c:1059 UCX  ERROR ibv_create_cq(cqe=256) failed: Connection timed out
[1738798286.848228] [ohm:3000142:0]        ib_iface.c:1059 UCX  ERROR ibv_create_cq(cqe=256) failed: Connection timed out
[1738798286.851212] [ohm:3000193:0]        ib_iface.c:1059 UCX  ERROR ibv_create_cq(cqe=256) failed: Connection timed out
[1738798286.851354] [ohm:3000138:0]        ib_iface.c:1059 UCX  ERROR ibv_create_cq(cqe=256) failed: Connection timed out
[1738798286.852187] [ohm:3000190:0]        ib_iface.c:1059 UCX  ERROR ibv_create_cq(cqe=256) failed: Connection timed out
[1738798286.855494] [ohm:3000196:0]        ib_iface.c:1059 UCX  ERROR ibv_create_cq(cqe=256) failed: Connection timed out
[1738798286.856034] [ohm:3000149:0]        ib_iface.c:1059 UCX  ERROR ibv_create_cq(cqe=256) failed: Connection timed out
[1738798286.856524] [ohm:3000087:0]        ib_iface.c:1059 UCX  ERROR ibv_create_cq(cqe=256) failed: Connection timed out
[1738798286.857460] [ohm:3000165:0]        ib_iface.c:1059 UCX  ERROR ibv_create_cq(cqe=256) failed: Connection timed out
[1738798286.859618] [ohm:3000186:0]        ib_iface.c:1059 UCX  ERROR ibv_create_cq(cqe=256) failed: Connection timed out
[1738798286.860713] [ohm:3000091:0]        ib_iface.c:1059 UCX  ERROR ibv_create_cq(cqe=256) failed: Connection timed out
[1738798286.861253] [ohm:3000106:0]        ib_iface.c:1059 UCX  ERROR ibv_create_cq(cqe=256) failed: Connection timed out


           ************************************************************
           *        Program running with 64 parallel MPI-processes    *
           *              working on a common directory               *
           ************************************************************

-------------------------------------------------------------------------------------------
                                      ORCA LEAN-SCF
                              memory conserving SCF solver
-------------------------------------------------------------------------------------------

----------------------------------------D-I-I-S--------------------------------------------
Iteration    Energy (Eh)           Delta-E    RMSDP     MaxDP     DIISErr   Damp  Time(sec)
-------------------------------------------------------------------------------------------
               ***  Starting incremental Fock matrix formation  ***
    1    -908.0948570294272031     0.00e+00  1.72e-03  2.60e-01  1.46e-01  0.700   8.5
    2    -908.3572619276460500    -2.62e-01  1.42e-03  1.56e-01  6.93e-02  0.700   6.8
                               ***Turning on AO-DIIS***
    3    -908.4756368656162522    -1.18e-01  1.13e-03  1.27e-01  2.71e-02  0.700   5.9
    4    -908.5477398450757391    -7.21e-02  2.96e-03  4.04e-01  1.87e-02  0.000   5.7
    5    -908.7083977870597664    -1.61e-01  5.54e-04  1.41e-01  3.61e-03  0.000   5.9
                              *** Initializing SOSCF ***
---------------------------------------S-O-S-C-F--------------------------------------
Iteration    Energy (Eh)           Delta-E    RMSDP     MaxDP     MaxGrad    Time(sec)
--------------------------------------------------------------------------------------
    6    -908.7094093740734024    -1.01e-03  4.40e-04  1.02e-01  1.65e-03     6.6
               *** Restarting incremental Fock matrix formation ***
    7    -908.7098415481095799    -4.32e-04  7.14e-04  1.70e-01  2.84e-03     8.2
    8    -908.7102273919649633    -3.86e-04  1.88e-03  4.34e-01  2.17e-03     7.3
    9    -908.7108641497006829    -6.37e-04  1.43e-03  2.92e-01  4.26e-03     7.5
               *** Scaled step length from 1.640428 to 0.200000 ***
   10    -908.7117361355758476    -8.72e-04  2.32e-03  4.95e-01  7.32e-03     7.5
               *** Scaled step length from 0.393779 to 0.200000 ***
   11    -908.7131213789507456    -1.39e-03  1.65e-03  2.96e-01  1.06e-02     7.4
   12    -908.7141486519431055    -1.03e-03  1.89e-03  4.83e-01  1.40e-02     7.6
               *** Scaled step length from 0.326825 to 0.200000 ***
   13    -908.7169522703388793    -2.80e-03  4.58e-03  1.17e+00  1.29e-02     7.4
   14    -908.7238114477427189    -6.86e-03  2.16e-03  4.23e-01  6.02e-03     7.5
   15    -908.7253113006468084    -1.50e-03  7.42e-04  1.53e-01  4.63e-03     7.4
   16    -908.7262595021752531    -9.48e-04  6.91e-04  1.73e-01  1.96e-03     7.4
   17    -908.7264787479084589    -2.19e-04  2.19e-04  5.44e-02  1.31e-03     7.1
   18    -908.7265675696958169    -8.88e-05  1.14e-04  2.14e-02  8.64e-04     7.0
   19    -908.7265977609877154    -3.02e-05  2.70e-05  4.64e-03  2.72e-04     7.0
   20    -908.7266041925154241    -6.43e-06  3.09e-05  3.67e-03  1.39e-04     6.8
   21    -908.7266064030204689    -2.21e-06  1.43e-05  3.52e-03  6.17e-05     6.6
   22    -908.7266069454449280    -5.42e-07  1.19e-05  2.66e-03  5.60e-05     6.4
   23    -908.7266071670615020    -2.22e-07  3.62e-06  7.17e-04  2.51e-05     6.3
   24    -908.7266072003540103    -3.33e-08  4.53e-06  1.06e-03  1.55e-05     6.1
   25    -908.7266072389752480    -3.86e-08  1.39e-06  2.21e-04  7.25e-06     6.0
   26    -908.7266072250690740     1.39e-08  2.35e-06  4.30e-04  2.72e-06     5.7
               *** Restarting incremental Fock matrix formation ***
   27    -908.7266072178485956     7.22e-09  4.26e-06  9.92e-04  2.23e-06     8.0
                 **** Energy Check signals convergence ****

               *****************************************************
               *                     SUCCESS                       *
               *           SCF CONVERGED AFTER  27 CYCLES          *
               *****************************************************

Recomputing exchange energy using gridx3       ... done (    7.996 sec)
Old exchange energy                            :    -35.041176471 Eh
New exchange energy                            :    -35.041198328 Eh
Exchange energy change after final integration :     -0.000021856 Eh
Total energy after final integration           :   -908.726629074 Eh
             **** ENERGY FILE WAS UPDATED (orca.en.tmp) ****

----------------
TOTAL SCF ENERGY
----------------

Total Energy       :       -908.72662907415895 Eh          -24727.70871 eV

Components:
Nuclear Repulsion  :       1447.37737607972622 Eh           39385.14070 eV
Electronic Energy  :      -2356.10398329757481 Eh          -64112.84882 eV
One Electron Energy:      -4112.07047043882267 Eh         -111895.12614 eV
Two Electron Energy:       1755.96648714124785 Eh           47782.27732 eV

Virial components:
Potential Energy   :      -1815.04584719493459 Eh          -49389.90844 eV
Kinetic Energy     :        906.31921812077564 Eh           24662.19973 eV
Virial Ratio       :          2.00265625058506

DFT components:
N(Alpha)           :       66.999824069466 electrons
N(Beta)            :       64.999822904210 electrons
N(Total)           :      131.999646973676 electrons
E(XC)              :      -86.336718805057 Eh       

---------------
SCF CONVERGENCE
---------------

  Last Energy change         ...   -7.2205e-09  Tolerance :   1.0000e-08
  Last MAX-Density change    ...    9.9152e-04  Tolerance :   1.0000e-07
  Last RMS-Density change    ...    4.2589e-06  Tolerance :   5.0000e-09
  Last DIIS Error            ...    1.6460e-03  Tolerance :   5.0000e-07
  Last Orbital Gradient      ...    2.2328e-06  Tolerance :   1.0000e-05
  Last Orbital Rotation      ...    1.6140e-05  Tolerance :   1.0000e-05


----------------------
UHF SPIN CONTAMINATION
----------------------

Warning: in a DFT calculation there is little theoretical justification to 
         calculate <S**2> as in Hartree-Fock theory. We will do it anyways
         but you should keep in mind that the values have only limited relevance

Expectation value of <S**2>     :     2.013208
Ideal value S*(S+1) for S=1.0   :     2.000000
Deviation                       :     0.013208

----------------
ORBITAL ENERGIES
----------------
                 SPIN UP ORBITALS
  NO   OCC          E(Eh)            E(eV) 
   0   1.0000     -19.331068      -526.0251 
   1   1.0000     -19.327509      -525.9283 
   2   1.0000     -19.327162      -525.9188 
   3   1.0000     -19.316974      -525.6416 
   4   1.0000     -14.589940      -397.0125 
   5   1.0000     -14.588152      -396.9638 
   6   1.0000     -14.572831      -396.5469 
   7   1.0000     -14.546808      -395.8388 
   8   1.0000     -10.517038      -286.1831 
   9   1.0000     -10.505394      -285.8663 
  10   1.0000     -10.482924      -285.2549 
  11   1.0000     -10.457302      -284.5577 
  12   1.0000     -10.437342      -284.0145 
  13   1.0000     -10.405272      -283.1419 
  14   1.0000     -10.394967      -282.8614 
  15   1.0000     -10.386708      -282.6367 
  16   1.0000     -10.367722      -282.1201 
  17   1.0000     -10.352444      -281.7043 
  18   1.0000      -1.230390       -33.4806 
  19   1.0000      -1.221838       -33.2479 
  20   1.0000      -1.198049       -32.6006 
  21   1.0000      -1.187403       -32.3109 
  22   1.0000      -1.127438       -30.6792 
  23   1.0000      -1.121955       -30.5299 
  24   1.0000      -1.073794       -29.2194 
  25   1.0000      -1.057622       -28.7794 
  26   1.0000      -0.977477       -26.5985 
  27   1.0000      -0.959246       -26.1024 
  28   1.0000      -0.855838       -23.2885 
  29   1.0000      -0.850773       -23.1507 
  30   1.0000      -0.815148       -22.1813 
  31   1.0000      -0.807856       -21.9829 
  32   1.0000      -0.797862       -21.7109 
  33   1.0000      -0.787049       -21.4167 
  34   1.0000      -0.700569       -19.0635 
  35   1.0000      -0.700142       -19.0518 
  36   1.0000      -0.696005       -18.9393 
  37   1.0000      -0.688939       -18.7470 
  38   1.0000      -0.647102       -17.6085 
  39   1.0000      -0.643203       -17.5025 
  40   1.0000      -0.629544       -17.1308 
  41   1.0000      -0.604895       -16.4600 
  42   1.0000      -0.601771       -16.3750 
  43   1.0000      -0.591249       -16.0887 
  44   1.0000      -0.578239       -15.7347 
  45   1.0000      -0.570118       -15.5137 
  46   1.0000      -0.565947       -15.4002 
  47   1.0000      -0.555194       -15.1076 
  48   1.0000      -0.550717       -14.9858 
  49   1.0000      -0.539601       -14.6833 
  50   1.0000      -0.530121       -14.4253 
  51   1.0000      -0.527689       -14.3591 
  52   1.0000      -0.520600       -14.1662 
  53   1.0000      -0.514396       -13.9974 
  54   1.0000      -0.508391       -13.8340 
  55   1.0000      -0.501149       -13.6370 
  56   1.0000      -0.488015       -13.2796 
  57   1.0000      -0.481740       -13.1088 
  58   1.0000      -0.423182       -11.5154 
  59   1.0000      -0.415361       -11.3026 
  60   1.0000      -0.409547       -11.1443 
  61   1.0000      -0.395074       -10.7505 
  62   1.0000      -0.393605       -10.7105 
  63   1.0000      -0.388243       -10.5646 
  64   1.0000      -0.382987       -10.4216 
  65   1.0000      -0.346440        -9.4271 
  66   1.0000      -0.207071        -5.6347 
  67   0.0000       0.009559         0.2601 
  68   0.0000       0.017234         0.4690 
  69   0.0000       0.028873         0.7857 
  70   0.0000       0.037420         1.0183 
  71   0.0000       0.040802         1.1103 
  72   0.0000       0.055931         1.5220 
  73   0.0000       0.058228         1.5845 
  74   0.0000       0.061657         1.6778 
  75   0.0000       0.064978         1.7681 
  76   0.0000       0.068474         1.8633 
  77   0.0000       0.076777         2.0892 

                 SPIN DOWN ORBITALS
  NO   OCC          E(Eh)            E(eV) 
   0   1.0000     -19.330882      -526.0200 
   1   1.0000     -19.327357      -525.9241 
   2   1.0000     -19.325528      -525.8744 
   3   1.0000     -19.311430      -525.4907 
   4   1.0000     -14.587588      -396.9484 
   5   1.0000     -14.584984      -396.8776 
   6   1.0000     -14.572856      -396.5476 
   7   1.0000     -14.546003      -395.8169 
   8   1.0000     -10.517032      -286.1830 
   9   1.0000     -10.505787      -285.8770 
  10   1.0000     -10.482826      -285.2522 
  11   1.0000     -10.456983      -284.5490 
  12   1.0000     -10.435830      -283.9734 
  13   1.0000     -10.395811      -282.8844 
  14   1.0000     -10.387021      -282.6452 
  15   1.0000     -10.384652      -282.5807 
  16   1.0000     -10.368188      -282.1327 
  17   1.0000     -10.352389      -281.7028 
  18   1.0000      -1.229967       -33.4691 
  19   1.0000      -1.217556       -33.1314 
  20   1.0000      -1.198133       -32.6029 
  21   1.0000      -1.179148       -32.0862 
  22   1.0000      -1.126297       -30.6481 
  23   1.0000      -1.111371       -30.2419 
  24   1.0000      -1.073431       -29.2096 
  25   1.0000      -1.052479       -28.6394 
  26   1.0000      -0.966639       -26.3036 
  27   1.0000      -0.946020       -25.7425 
  28   1.0000      -0.849864       -23.1260 
  29   1.0000      -0.845111       -22.9966 
  30   1.0000      -0.814131       -22.1536 
  31   1.0000      -0.799205       -21.7475 
  32   1.0000      -0.795522       -21.6473 
  33   1.0000      -0.780522       -21.2391 
  34   1.0000      -0.699172       -19.0254 
  35   1.0000      -0.696852       -18.9623 
  36   1.0000      -0.687978       -18.7208 
  37   1.0000      -0.680882       -18.5278 
  38   1.0000      -0.645872       -17.5751 
  39   1.0000      -0.632632       -17.2148 
  40   1.0000      -0.622352       -16.9351 
  41   1.0000      -0.601410       -16.3652 
  42   1.0000      -0.594194       -16.1689 
  43   1.0000      -0.583141       -15.8681 
  44   1.0000      -0.570563       -15.5258 
  45   1.0000      -0.565215       -15.3803 
  46   1.0000      -0.560152       -15.2425 
  47   1.0000      -0.553927       -15.0731 
  48   1.0000      -0.544053       -14.8044 
  49   1.0000      -0.535975       -14.5846 
  50   1.0000      -0.522234       -14.2107 
  51   1.0000      -0.519578       -14.1384 
  52   1.0000      -0.514967       -14.0130 
  53   1.0000      -0.506919       -13.7940 
  54   1.0000      -0.500183       -13.6107 
  55   1.0000      -0.496457       -13.5093 
  56   1.0000      -0.477041       -12.9810 
  57   1.0000      -0.446409       -12.1474 
  58   1.0000      -0.422670       -11.5014 
  59   1.0000      -0.411122       -11.1872 
  60   1.0000      -0.404338       -11.0026 
  61   1.0000      -0.391328       -10.6486 
  62   1.0000      -0.377255       -10.2656 
  63   1.0000      -0.375562       -10.2196 
  64   1.0000      -0.349714        -9.5162 
  65   0.0000      -0.104331        -2.8390 
  66   0.0000       0.009262         0.2520 
  67   0.0000       0.021968         0.5978 
  68   0.0000       0.026821         0.7298 
  69   0.0000       0.034014         0.9256 
  70   0.0000       0.040311         1.0969 
  71   0.0000       0.055745         1.5169 
  72   0.0000       0.057475         1.5640 
  73   0.0000       0.061796         1.6816 
  74   0.0000       0.062121         1.6904 
  75   0.0000       0.068163         1.8548 
*Only the first 10 virtual orbitals were printed.

                    ********************************
                    * MULLIKEN POPULATION ANALYSIS *
                    ********************************

--------------------------------------------
MULLIKEN ATOMIC CHARGES AND SPIN POPULATIONS
--------------------------------------------
   0 O :   -0.690324    0.205466
   1 O :   -0.650923   -0.006965
[...]
[1738798640.463391] [ohm:3001296:0]        ib_iface.c:1059 UCX  ERROR ibv_create_cq(cqe=256) failed: Connection timed out
[1738798640.464677] [ohm:3001225:0]        ib_iface.c:1059 UCX  ERROR ibv_create_cq(cqe=256) failed: Connection timed out
[1738798640.469645] [ohm:3001224:0]        ib_iface.c:1059 UCX  ERROR ibv_create_cq(cqe=256) failed: Connection timed out
[1738798640.469727] [ohm:3001214:0]        ib_iface.c:1059 UCX  ERROR ibv_create_cq(cqe=256) failed: Connection timed out
[1738798640.470066] [ohm:3001279:0]        ib_iface.c:1059 UCX  ERROR ibv_create_cq(cqe=256) failed: Connection timed out
[1738798640.471539] [ohm:3001216:0]        ib_iface.c:1059 UCX  ERROR ibv_create_cq(cqe=256) failed: Connection timed out
[1738798640.473047] [ohm:3001264:0]        ib_iface.c:1059 UCX  ERROR ibv_create_cq(cqe=256) failed: Connection timed out
[1738798640.473043] [ohm:3001208:0]        ib_iface.c:1059 UCX  ERROR ibv_create_cq(cqe=256) failed: Connection timed out
[1738798640.474932] [ohm:3001309:0]        ib_iface.c:1059 UCX  ERROR ibv_create_cq(cqe=256) failed: Connection timed out
[1738798640.474965] [ohm:3001319:0]        ib_iface.c:1059 UCX  ERROR ibv_create_cq(cqe=256) failed: Connection timed out


           ************************************************************
           *        Program running with 64 parallel MPI-processes    *
           *              working on a common directory               *
           ************************************************************

------------------------------------------------------------------------------
                              ORCA PROPERTY CALCULATIONS
------------------------------------------------------------------------------

GBWName                                 ... orca.gbw
Number of atoms                         ...     30
Number of basis functions               ...    882
Max core memory                         ...   1024 MB

Electric properties:
Dipole moment                           ... YES
Quadrupole moment                       ...  NO
Static polarizability (Dipole/Dipole)   ...  NO
Static polarizability (Dipole/Quad.)    ...  NO
Static polarizability (Quad./Quad.)     ...  NO
Static polarizability (Velocity)        ...  NO

Atomic electric properties:
Dipole moment                           ...  NO
Quadrupole moment                       ...  NO
Static polarizability                   ...  NO

Choice of electric origin               ... Center of mass
Position of electric origin             ...     0.056933     0.005617     0.124736

General magnetic properties:
Magnetizability                         ...  NO

EPR properties:
g-Tensor (aka g-matrix)                 ...  NO
Zero-Field splitting spin-orbit         ...  NO
Zero-field splitting spin-spin          ...  NO
Hyperfine couplings                     ...  NO (   0 nuclei)
Quadrupole couplings                    ...  NO (   0 nuclei)
Contact density                         ...  NO (   0 nuclei)

NMR properties:
Chemical shifts                         ...  NO (   0 nuclei)
Spin-rotation constants                 ...  NO (   0 nuclei)
Spin-spin couplings                     ...  NO (   0 nuclei,    0 pairs)

Choice of magnetic origin               ... GIAO
Position of magnetic origin             ...     0.000000     0.000000     0.000000

Properties with geometric perturbations:
SCF Hessian                             ...  NO
IR spectrum                             ...  NO
VCD spectrum                            ...  NO
X-ray spectroscopy properties:
SCF XES/XAS/RIXS spectra                ...  NO


-------------
DIPOLE MOMENT
-------------

Method             : SCF
Type of density    : Electron Density
Multiplicity       :   3
Irrep              :   0
Energy             :  -908.7266290741589501 Eh
Relativity type    : 
Basis              : AO
                                X                 Y                 Z
Electronic contribution:     -2.402155818      -9.630961444      -5.682065297
Nuclear contribution   :      1.492683561      10.764385950       7.855437130
                        -----------------------------------------
Total Dipole Moment    :     -0.909472258       1.133424506       2.173371833
                        -----------------------------------------
Magnitude (a.u.)       :      2.614447556
Magnitude (Debye)      :      6.645397569



--------------------
Rotational spectrum 
--------------------
 
Rotational constants in cm-1:             0.019774             0.014807             0.011636 
Rotational constants in MHz :           592.803325           443.915358           348.826687 

Dipole components along the rotational axes: 
x,y,z [a.u.] :     1.840932     1.174808     1.437404 
x,y,z [Debye]:     4.679278     2.986125     3.653590 

 

-------------
DIPOLE MOMENT
-------------

Method             : TDA/CIS
Type of density    : Electron Density
Level              : Relaxed density
State              :   1
Multiplicity       :   3
Irrep              :   0
Energy             :     0.0000000000000000 Eh
Relativity type    : 
Basis              : AO
                                X                 Y                 Z
Electronic contribution:     -2.329260610      -9.874041204      -5.649065374
Nuclear contribution   :      1.492683561      10.764385950       7.855437130
                        -----------------------------------------
Total Dipole Moment    :     -0.836577049       0.890344746       2.206371756
                        -----------------------------------------
Magnitude (a.u.)       :      2.522033159
Magnitude (Debye)      :      6.410498838



--------------------
Rotational spectrum 
--------------------
 
Rotational constants in cm-1:             0.019774             0.014807             0.011636 
Rotational constants in MHz :           592.803325           443.915358           348.826687 

Dipole components along the rotational axes: 
x,y,z [a.u.] :     1.731872     0.974272     1.553082 
x,y,z [Debye]:     4.402069     2.476402     3.947622 

 

Dipole moment calculation done in   0.2 sec 

Maximum memory used throughout the entire PROP-calculation: 81.9 MB
[1738798642.951698] [ohm:3001537:0]        ib_iface.c:1059 UCX  ERROR ibv_create_cq(cqe=256) failed: Connection timed out
[1738798642.957757] [ohm:3001539:0]        ib_iface.c:1059 UCX  ERROR ibv_create_cq(cqe=256) failed: Connection timed out
[1738798642.964036] [ohm:3001542:0]        ib_iface.c:1059 UCX  ERROR ibv_create_cq(cqe=256) failed: Connection timed out
[1738798642.967603] [ohm:3001545:0]        ib_iface.c:1059 UCX  ERROR ibv_create_cq(cqe=256) failed: Connection timed out
[1738798642.975260] [ohm:3001538:0]        ib_iface.c:1059 UCX  ERROR ibv_create_cq(cqe=256) failed: Connection timed out
[1738798643.018563] [ohm:3001564:0]        ib_iface.c:1059 UCX  ERROR ibv_create_cq(cqe=256) failed: Connection timed out
[1738798643.022307] [ohm:3001547:0]        ib_iface.c:1059 UCX  ERROR ibv_create_cq(cqe=256) failed: Connection timed out
[1738798643.025475] [ohm:3001546:0]        ib_iface.c:1059 UCX  ERROR ibv_create_cq(cqe=256) failed: Connection timed out
[1738798643.029121] [ohm:3001544:0]        ib_iface.c:1059 UCX  ERROR ibv_create_cq(cqe=256) failed: Connection timed out
[1738798643.036779] [ohm:3001549:0]        ib_iface.c:1059 UCX  ERROR ibv_create_cq(cqe=256) failed: Connection timed out
[1738798643.043968] [ohm:3001587:0]        ib_iface.c:1059 UCX  ERROR ibv_create_cq(cqe=256) failed: Connection timed out
[1738798643.044420] [ohm:3001579:0]        ib_iface.c:1059 UCX  ERROR ibv_create_cq(cqe=256) failed: Connection timed out
[1738798643.044890] [ohm:3001566:0]        ib_iface.c:1059 UCX  ERROR ibv_create_cq(cqe=256) failed: Connection timed out
[1738798643.048609] [ohm:3001585:0]        ib_iface.c:1059 UCX  ERROR ibv_create_cq(cqe=256) failed: Connection timed out
[1738798643.063345] [ohm:3001582:0]        ib_iface.c:1059 UCX  ERROR ibv_create_cq(cqe=256) failed: Connection timed out
[1738798643.063360] [ohm:3001592:0]        ib_iface.c:1059 UCX  ERROR ibv_create_cq(cqe=256) failed: Connection timed out
[1738798643.063404] [ohm:3001642:0]        ib_iface.c:1059 UCX  ERROR ibv_create_cq(cqe=256) failed: Connection timed out
[1738798643.069467] [ohm:3001603:0]        ib_iface.c:1059 UCX  ERROR ibv_create_cq(cqe=256) failed: Connection timed out
[1738798643.118765] [ohm:3001617:0]        ib_iface.c:1059 UCX  ERROR ibv_create_cq(cqe=256) failed: Connection timed out
[1738798643.121000] [ohm:3001666:0]        ib_iface.c:1059 UCX  ERROR ibv_create_cq(cqe=256) failed: Connection timed out
[1738798643.121923] [ohm:3001623:0]        ib_iface.c:1059 UCX  ERROR ibv_create_cq(cqe=256) failed: Connection timed out
[1738798643.122259] [ohm:3001589:0]        ib_iface.c:1059 UCX  ERROR ibv_create_cq(cqe=256) failed: Connection timed out
[1738798643.122964] [ohm:3001636:0]        ib_iface.c:1059 UCX  ERROR ibv_create_cq(cqe=256) failed: Connection timed out
[1738798643.128477] [ohm:3001692:0]        ib_iface.c:1059 UCX  ERROR ibv_create_cq(cqe=256) failed: Connection timed out
[1738798643.131136] [ohm:3001560:0]        ib_iface.c:1059 UCX  ERROR ibv_create_cq(cqe=256) failed: Connection timed out
[1738798643.137044] [ohm:3001629:0]        ib_iface.c:1059 UCX  ERROR ibv_create_cq(cqe=256) failed: Connection timed out
[1738798643.137655] [ohm:3001548:0]        ib_iface.c:1059 UCX  ERROR ibv_create_cq(cqe=256) failed: Connection timed out
[1738798643.138174] [ohm:3001644:0]        ib_iface.c:1059 UCX  ERROR ibv_create_cq(cqe=256) failed: Connection timed out
[1738798643.141668] [ohm:3001591:0]        ib_iface.c:1059 UCX  ERROR ibv_create_cq(cqe=256) failed: Connection timed out
[1738798643.142495] [ohm:3001668:0]        ib_iface.c:1059 UCX  ERROR ibv_create_cq(cqe=256) failed: Connection timed out
[1738798643.145464] [ohm:3001570:0]        ib_iface.c:1059 UCX  ERROR ibv_create_cq(cqe=256) failed: Connection timed out
[1738798643.170224] [ohm:3001675:0]        ib_iface.c:1059 UCX  ERROR ibv_create_cq(cqe=256) failed: Connection timed out
[1738798643.180341] [ohm:3001655:0]        ib_iface.c:1059 UCX  ERROR ibv_create_cq(cqe=256) failed: Connection timed out
[1738798643.180944] [ohm:3001619:0]        ib_iface.c:1059 UCX  ERROR ibv_create_cq(cqe=256) failed: Connection timed out
[1738798643.186403] [ohm:3001600:0]        ib_iface.c:1059 UCX  ERROR ibv_create_cq(cqe=256) failed: Connection timed out
[1738798643.194284] [ohm:3001649:0]        ib_iface.c:1059 UCX  ERROR ibv_create_cq(cqe=256) failed: Connection timed out
[1738798643.205907] [ohm:3001559:0]        ib_iface.c:1059 UCX  ERROR ibv_create_cq(cqe=256) failed: Connection timed out
[1738798643.210903] [ohm:3001661:0]        ib_iface.c:1059 UCX  ERROR ibv_create_cq(cqe=256) failed: Connection timed out
[1738798643.216302] [ohm:3001608:0]        ib_iface.c:1059 UCX  ERROR ibv_create_cq(cqe=256) failed: Connection timed out
[1738798643.220533] [ohm:3001595:0]        ib_iface.c:1059 UCX  ERROR ibv_create_cq(cqe=256) failed: Connection timed out
[1738798643.221917] [ohm:3001632:0]        ib_iface.c:1059 UCX  ERROR ibv_create_cq(cqe=256) failed: Connection timed out
[1738798643.225304] [ohm:3001610:0]        ib_iface.c:1059 UCX  ERROR ibv_create_cq(cqe=256) failed: Connection timed out
[1738798643.226105] [ohm:3001599:0]        ib_iface.c:1059 UCX  ERROR ibv_create_cq(cqe=256) failed: Connection timed out
[1738798643.229177] [ohm:3001572:0]        ib_iface.c:1059 UCX  ERROR ibv_create_cq(cqe=256) failed: Connection timed out
[1738798643.235287] [ohm:3001596:0]        ib_iface.c:1059 UCX  ERROR ibv_create_cq(cqe=256) failed: Connection timed out
[1738798643.237509] [ohm:3001683:0]        ib_iface.c:1059 UCX  ERROR ibv_create_cq(cqe=256) failed: Connection timed out
[1738798643.241043] [ohm:3001598:0]        ib_iface.c:1059 UCX  ERROR ibv_create_cq(cqe=256) failed: Connection timed out
[1738798643.248194] [ohm:3001658:0]        ib_iface.c:1059 UCX  ERROR ibv_create_cq(cqe=256) failed: Connection timed out
[1738798643.254191] [ohm:3001690:0]        ib_iface.c:1059 UCX  ERROR ibv_create_cq(cqe=256) failed: Connection timed out
[1738798643.259580] [ohm:3001672:0]        ib_iface.c:1059 UCX  ERROR ibv_create_cq(cqe=256) failed: Connection timed out
[1738798643.259740] [ohm:3001543:0]        ib_iface.c:1059 UCX  ERROR ibv_create_cq(cqe=256) failed: Connection timed out
[1738798643.260534] [ohm:3001594:0]        ib_iface.c:1059 UCX  ERROR ibv_create_cq(cqe=256) failed: Connection timed out
[1738798643.265866] [ohm:3001541:0]        ib_iface.c:1059 UCX  ERROR ibv_create_cq(cqe=256) failed: Connection timed out
[1738798643.266343] [ohm:3001651:0]        ib_iface.c:1059 UCX  ERROR ibv_create_cq(cqe=256) failed: Connection timed out
[1738798643.266970] [ohm:3001626:0]        ib_iface.c:1059 UCX  ERROR ibv_create_cq(cqe=256) failed: Connection timed out
[1738798643.267177] [ohm:3001597:0]        ib_iface.c:1059 UCX  ERROR ibv_create_cq(cqe=256) failed: Connection timed out
[1738798643.269954] [ohm:3001577:0]        ib_iface.c:1059 UCX  ERROR ibv_create_cq(cqe=256) failed: Connection timed out
[1738798643.276853] [ohm:3001593:0]        ib_iface.c:1059 UCX  ERROR ibv_create_cq(cqe=256) failed: Connection timed out
[1738798643.277749] [ohm:3001601:0]        ib_iface.c:1059 UCX  ERROR ibv_create_cq(cqe=256) failed: Connection timed out
[1738798643.278488] [ohm:3001561:0]        ib_iface.c:1059 UCX  ERROR ibv_create_cq(cqe=256) failed: Connection timed out
[1738798643.282256] [ohm:3001590:0]        ib_iface.c:1059 UCX  ERROR ibv_create_cq(cqe=256) failed: Connection timed out
[1738798643.282341] [ohm:3001678:0]        ib_iface.c:1059 UCX  ERROR ibv_create_cq(cqe=256) failed: Connection timed out
[1738798643.282431] [ohm:3001575:0]        ib_iface.c:1059 UCX  ERROR ibv_create_cq(cqe=256) failed: Connection timed out
[1738798643.284561] [ohm:3001540:0]        ib_iface.c:1059 UCX  ERROR ibv_create_cq(cqe=256) failed: Connection timed out

--------------------------------
SUGGESTED CITATIONS FOR THIS RUN
--------------------------------

Below you find a list of papers that are relevant to this ORCA run
We neither can nor want to force you to cite these papers, but we appreciate if you do
You receive ORCA, which is the product of decades of hard work by many enthusiastic individuals, for free
The only thing we kindly ask in return is that you cite our papers,
We deeply appreciate it, if you show your appreciation for ORCA by not just citing the generic ORCA reference.

Please note that relegating all ORCA citations to the supporting information does *not* help us.
SI sections are not indexed - citations you put there will not count into any citation statistics
But we need these citations in order to attract the funding resources that allow us to do what we are doing

Therefore, if you are a happy ORCA user, please consider citing a few of the papers listed below in the main body of your paper

In addition to the list printed below, the program has created the file orca.bibtex that contains the list in bibtex format
You can import this file easily into all common literature databanks and citation aid programs


List of essential papers. We consider these as the minimum necessary citations

  1. Neese,F.
     Software update: the ORCA program system, version 5.0
     WIRES Comput. Molec. Sci., 2022 12(1)e1606
     doi.org/10.1002/wcms.1606

List of papers to cite with high priority. The work reported in these papers was absolutely
necessary for this run to complete.
Our perspective: the developers of density functionals and basis sets usually get cited in chemistry papers
Good! But without the algorithms to do something with them, the functionals or basis sets would not do anything.
Hence, in our opinion, the algorithm design and method developments papers are equally worthy of getting cited

  1. Neese,F.; Olbrich,G.
     Efficient use of the resolution of the identity approximation in time-dependent density functional calculations with hybrid density functionals
     Chem. Phys. Lett., 2002 362 170-178
     doi.org/10.1016/s0009-2614(02)01053-9
  2. Neese,F.
     An improvement of the resolution of the identity approximation for the formation of the Coulomb matrix
     J. Comp. Chem., 2003 24(14)1740-1747
     doi.org/10.1002/jcc.10318
  3. Neese,F.; Wennmohs,F.; Hansen,A.; Becker,U.
     Efficient, approximate and parallel Hartree-Fock and hybrid DFT calculations. A 'chain-of-spheres' algorithm for the Hartree-Fock exchange
     Chem. Phys., 2009 356(1-3)98-109
     doi.org/10.1016/j.chemphys.2008.10.036
  4. Petrenko,T.; Kossmann,S.; Neese,F.
     Efficient time-dependent density functional theory approximations for hybrid density functionals: Analytical gradients and parallelization
     J. Chem. Phys., 2011 134 054116
     doi.org/10.1063/1.3533441
  5. Helmich-Paris,B.; de Souza,B.; Neese,F.; Izsák,R.
     An improved chain of spheres for exchange algorithm
     J. Chem. Phys., 2021 155 104109
     doi.org/doi: 10.1063/5.0058766.
  6. Neese,F.
     The SHARK Integral Generation and Digestion System
     J. Comp. Chem., 2022  1-16
     doi.org/10.1002/jcc.26942
  7. Lehtola,S.; Steigemann,C.; Oliveira,M.; Marques,M.
     Recent developments in Libxc - A comprehensive library of functionals for density functional theory
     Software X, 2018 7 
     doi.org/10.1016/j.softx.2017.11.002
  8. Grimme,S.; Antony,J.; Ehrlich,S.; Krieg,H.
     A consistent and accurate ab initio parametrization of density functional dispersion correction (DFT-D) for the 94 elements H-Pu
     J. Chem. Phys., 2010 132 154104-XXXX
     doi.org/10.1063/1.3382344
  9. Grimme,S.; Ehrlich,S.; Goerigk,L.
     Effect of the damping function in dispersion corrected density functional theory
     J. Comput. Chem., 2011 32(7)1456-1465
     doi.org/10.1002/jcc.21759

List of suggested additional citations. These are papers that are important in the 'surrounding' of 
of this run, or papers that preceded the highly important papers. If you like your results we are grateful for a citation.

  1. Izsak,R.; Neese,F.
     An overlap fitted chain of spheres exchange method
     J. Chem. Phys., 2011 135 144105
     doi.org/10.1063/1.3646921
  2. Izsak,R.; Hansen,A.; Neese,F.
     The resolution of identity and chain of spheres approximations for the LPNO-CCSD singles Fock term
     Molec. Phys., 2012 110 2413-2417
     doi.org/10.1080/00268976.2012.687466
  3. Neese,F.
     The ORCA program system
     WIRES Comput. Molec. Sci., 2012 2(1)73-78
     doi.org/10.1002/wcms.81
  4. Izsak,R.; Neese,F.; Klopper,W.
     Robust fitting techniques in the chain of spheres approximation to the Fock exchange: The role of the complementary space
     J. Chem. Phys., 2013 139 
     doi.org/10.1063/1.4819264
  5. Neese,F.
     Software update: the ORCA program system, version 4.0
     WIRES Comput. Molec. Sci., 2018 8(1)1-6
     doi.org/10.1002/wcms.1327
  6. Neese,F.; Wennmohs,F.; Becker,U.; Riplinger,C.
     The ORCA quantum chemistry program package
     J. Chem. Phys., 2020 152 Art. No. L224108
     doi.org/10.1063/5.0004608

List of optional additional citations

  1. Neese,F.
     Approximate second-order SCF convergence for spin unrestricted wavefunctions
     Chem. Phys. Lett., 2000 325(1-3)93-98
     doi.org/10.1016/s0009-2614(00)00662-x

Timings for individual modules:

Sum of individual times          ...      366.799 sec (=   6.113 min)
Startup calculation              ...        6.345 sec (=   0.106 min)   1.7 %
SCF iterations                   ...      205.150 sec (=   3.419 min)  55.9 %
Property integrals               ...        4.169 sec (=   0.069 min)   1.1 %
Property calculations            ...        2.827 sec (=   0.047 min)   0.8 %
CIS module                       ...      148.309 sec (=   2.472 min)  40.4 %
                             ****ORCA TERMINATED NORMALLY****
TOTAL RUN TIME: 0 days 0 hours 6 minutes 8 seconds 852 msec
