30
Properties=species:S:1:pos:R:3:momenta:R:3:forces:R:3 Coordinates=T from=T ORCA-job=T orca=T E=T -908.717834524281=T energy=-24725.23176999824 free_energy=-24725.23176999824 stress="2.11859175793108e-06 2.948514161023101e-07 7.670210391548754e-07 2.948514161023101e-07 1.546743294773446e-08 -1.9922879138289052e-07 7.670210391548754e-07 -1.9922879138289052e-07 -1.993222027074701e-06" pbc="F F F"
O        2.40030853      -0.39190620      -1.11330327      -0.02534730       0.19948717       0.16355105       0.07678669       0.03337009      -0.09105207
O        0.06979949       2.90660725      -2.00883055       0.08490282      -0.44062760      -0.51266963      -0.13926294      -0.94180906      -1.80888027
O        0.18262351      -3.84025316       0.77341565      -0.00680233       0.03892606      -0.04205751      -0.00426272      -0.05786835       0.02977578
O       -2.05081057      -1.00029755      -1.55813236      -0.10591277       0.05261530      -0.02473892      -0.02964706      -0.04518953      -0.04267274
N        0.41848967      -1.95430235       2.01742128       0.20492720      -0.18047248       0.04768250       0.08297923       0.03508222      -0.09229592
N       -1.37579993      -0.29299889       0.47715815       0.09180325       0.05596400      -0.12638081       0.14819223       0.10284176       0.08483501
N        1.08233326      -1.99713055      -0.20819714      -0.15773757       0.02443216       0.06015844       0.05782506       0.09260586       0.01636986
N       -0.72231712       0.82285659      -1.53677386      -0.27103643       0.06101241       0.03807458      -0.09091446       0.12924546       0.16628653
C        1.48918104       0.03926103       1.02442304      -0.70159465       0.04461411      -0.22620360      -2.75851449       0.39508188       0.37457243
C       -0.48533489       2.86108062      -0.00700194      -0.66623940      -0.34454748       0.12750554      -2.14098487      -0.31691777       0.84212485
C        0.58152743      -0.53243889       2.06756809      -0.17795510       0.03067355       0.03042780      -0.08487601      -0.16551176      -0.02143964
C       -0.46562784       0.29685973       1.34969389       0.85485333      -0.02403598       0.01076675       2.92469428      -0.46064699      -0.53060276
C        2.30752637       1.26470099       1.27229712       0.06396937       0.04037213      -0.07265723      -0.18596418       0.01179631       0.16475750
C       -1.73125018       3.62173338       0.16885977       0.05220971      -0.02868750       0.43390718       0.14077942      -0.40083452       1.36110108
C        1.71403251      -0.75351798      -0.18434490       0.02742244       0.06740899      -0.04183108      -0.14764487      -0.04435737       0.18184721
C       -0.39956146       2.11059171      -1.19904487       0.64379495       0.45028370      -0.18231723       2.29426504       0.79307262      -0.63059407
C        0.53003964      -2.68622315       0.86658389      -0.02009495      -0.03731901       0.29957864       0.01562380       0.05090878      -0.07303017
C       -1.43962617      -0.19805112      -0.90034915      -0.13935687      -0.16425178       0.03091210       0.05404886       0.08796658       0.10226580
H        0.79558673      -0.20432451       3.07290673       0.03330027       0.01094561      -0.01715779       0.01120851       0.03779885       0.12809407
H       -0.53307235       1.33925973       1.59224394      -0.00603558      -0.00699517       0.01883922      -0.07438706       0.07199162      -0.01886396
H        2.48521108       1.80198244       0.34934222       0.04378295      -0.01469525       0.00957048       0.04702470       0.00582855      -0.09911068
H        1.79992360       1.94064762       1.96603874      -0.00449623       0.00880394      -0.00493467       0.05489328      -0.11948506      -0.05460427
H        3.26943888       0.99461957       1.70895495       0.01186610      -0.00516235       0.01987023       0.02896171       0.01217313      -0.01023540
H       -2.38689847       2.92406071       0.70929148      -0.08769818       0.03493554      -0.01547123      -0.40517421       0.29915446       0.10727178
H       -1.62016179       4.49638852       0.78646201      -0.00217078       0.00617750      -0.01936805      -0.08600840       0.39770288       0.11018646
H       -2.23805046       3.86349088      -0.76653095       0.10183188       0.02043629      -0.00275709       0.37226059       0.16023251      -0.19322434
H       -0.03228816      -2.43398301       2.77011829       0.04330822       0.01248468      -0.02743782      -0.06278361      -0.05281073       0.11383238
H       -1.78405612      -1.16447876       0.77725203       0.08389223       0.02073098       0.02005557      -0.02667552      -0.05229926       0.01311140
H        1.23328025      -2.55032166      -1.03517940       0.01503021       0.02216191       0.01821003      -0.01343807      -0.04104525      -0.02732525
H       -0.61815336       0.65089577      -2.52334090       0.01558321       0.04432856      -0.01312744      -0.05900494      -0.01807790      -0.10250059
