7
Properties=species:S:1:pos:R:3:momenta:R:3:forces:R:3 Coordinates=T from=T ORCA-job=T orca=T E=T -153.773453807806=T energy=-4183.434726429041 free_energy=-4183.434726429041 stress="4.293511607891201e-06 -5.245973841122946e-06 -1.2857031840689423e-06 -5.245973841122946e-06 1.4888372269829987e-05 2.608341785329846e-06 -1.2857031840689423e-06 2.608341785329846e-06 -5.284419992150876e-07" pbc="F F F"
O        0.64842543       1.15586883       0.12056197       0.86406683       0.57013949      -0.06112634       0.64194748      -1.80488968      -0.40269865
C        0.55120613      -0.27837717       0.03855996      -0.31291814       0.39551236      -0.11234781       0.45834166      -1.00312463       0.27318407
C       -0.85085762      -0.70748552       0.12117215      -0.09591681      -0.79511410       0.24739268      -0.67670748       0.97090357       0.70964031
H        1.21187315      -0.84764779       0.76828148      -0.07602079      -0.23471347      -0.01052619      -0.59536681       1.13360830       0.25929420
H        1.11761975      -0.82102833      -0.79268465       0.04159014      -0.09209734       0.04949503      -0.58428056       1.42903867      -0.17555567
H       -1.20412733      -1.58293950       0.63759835      -0.00046923       0.23869166       0.06254558       0.43580676      -0.39718698      -0.28570333
H       -1.58830968       0.10503151       0.16132043      -0.42033199      -0.08241860      -0.17543295       0.32025896      -0.32834924      -0.37816094
