30
Properties=species:S:1:pos:R:3:momenta:R:3:forces:R:3 Coordinates=T from=T ORCA-job=T orca=T E=T -908.743926975486=T energy=-24728.811760495984 free_energy=-24728.811760495984 stress="4.542485031850829e-06 -1.717303131184738e-07 -1.2693518836732213e-06 -1.717303131184738e-07 -3.3072993177093864e-07 -2.4957813666267415e-08 -1.2693518836732213e-06 -2.4957813666267415e-08 -2.0024923320220067e-07" pbc="F F F"
O        3.27428701       0.27979375      -0.92001842       0.14439542      -0.37087820      -0.16487799      -0.10506508       0.21321166       0.25938019
O       -0.77364316       1.63354340      -2.32451693      -0.26575836       0.24415387       0.14735803      -0.02983614      -0.07923598       0.09050024
O        0.40191359      -3.07434921      -0.22387721       0.17796179      -0.17754747      -0.11192830       0.03361166      -0.05532386      -0.13227785
O       -2.95529207      -1.84894249      -0.50350810      -0.06789474       0.07059944      -0.18229373       0.04347758       0.01683449       0.08085048
N        0.37099540      -1.37952509       1.27827694      -0.31953229      -0.08326286      -0.19975960       0.18476935      -0.10297490      -0.41664566
N       -2.15703397      -0.26366794       0.91384147       0.07531007      -0.38931323       0.14491767       0.51469479       0.15667286       0.27510625
N        1.53535700      -1.16599315      -0.72935280       0.32950467       0.25779784       0.34537560       0.13224429       0.11841252      -0.00566173
N       -1.53332555      -0.26844402      -1.30994807       0.14211891      -0.24610414       0.28252584       0.11967141       0.18221365      -0.14499684
C        1.83458431       0.49985733       0.95903917      -1.25168524      -0.00342497       0.26078628      -2.69717948       0.30745532       0.42337939
C       -0.99083049       1.63548175       0.02353112      -0.33612301      -0.04269957      -0.27873248      -0.02977945      -0.00532457       0.34672725
C        0.41863640       0.02601480       1.54701610       0.80997667       0.13249234      -0.02148840       0.82363310       0.08468665      -0.66274439
C       -1.15176599       0.72791738       1.18573323       0.75962038      -0.07306160      -0.31257678       1.35590892      -0.01967247      -0.55489776
C        2.59133115       1.55567513       1.65046171      -0.00665997       0.05903996      -0.29432913      -0.38824132      -0.25447396      -0.17495824
C       -0.75187410       3.08413550       0.21144802      -0.40196013       0.23077150       0.12654608      -0.14102703      -0.24746164      -0.49113754
C        2.29872137      -0.08076860      -0.28216663       0.17145606       0.03452446       0.00615485      -0.06467998      -0.41784009      -0.02892565
C       -1.07019069       1.05468952      -1.29210086       0.14790577       0.21030566       0.23752177      -0.12310819      -0.07246743      -0.15408980
C        0.73546468      -1.95312590       0.07883551      -0.00595820       0.12178444       0.10268897      -0.18291506      -0.03426439       0.33912535
C       -2.26287328      -0.87760151      -0.30158229       0.26571009       0.01973956       0.03125241      -0.24632592      -0.21982386      -0.27380680
H        0.46006990       0.17579403       2.61165950      -0.06193060       0.09392974      -0.00876619       0.18630894       0.02425147       0.31215798
H       -1.45183673       1.27142411       2.07161435      -0.01609871      -0.05919668      -0.02339241       0.16056518       0.06237756       0.11431097
H        3.57130224       1.67092872       1.23047163      -0.01453788      -0.04247037      -0.05314139       0.34322935      -0.00204016      -0.13894305
H        2.07237229       2.50870095       1.57264102      -0.03114319       0.04366589      -0.02968202      -0.08044997       0.16102064      -0.01041843
H        2.64144075       1.32617200       2.70638934      -0.00851072      -0.06718016       0.03479549       0.11334851       0.00702125       0.29125154
H       -1.61408485       3.55488935       0.67604000      -0.08253501      -0.00883802      -0.01306489      -0.12640714       0.05799453       0.08704151
H        0.09202163       3.26897878       0.84413613       0.04234705       0.05536129      -0.06859417       0.41055384       0.07316017       0.38874031
H       -0.56479259       3.55003750      -0.74659770      -0.03933475      -0.01965520       0.02087244      -0.00923385       0.07905465      -0.11347841
H       -0.22435610      -1.97295081       1.81243765      -0.07474766       0.06481915       0.00091401      -0.23490298      -0.11717596       0.13588935
H       -2.66937412      -0.70895665       1.65374974       0.05329094      -0.05254421      -0.05603030       0.07092136      -0.00080524       0.02580310
H        1.85513494      -1.61726423      -1.57635374      -0.10089879       0.02253378       0.01332910      -0.01976959       0.07878212       0.11212857
H       -1.62966521      -0.69246075      -2.21892318      -0.03428855      -0.02534224       0.06361924      -0.01401709       0.00573497       0.02058967
