
                                 *****************
                                 * O   R   C   A *
                                 *****************

                                            #,                                       
                                            ###                                      
                                            ####                                     
                                            #####                                    
                                            ######                                   
                                           ########,                                 
                                     ,,################,,,,,                         
                               ,,#################################,,                 
                          ,,##########################################,,             
                       ,#########################################, ''#####,          
                    ,#############################################,,   '####,        
                  ,##################################################,,,,####,       
                ,###########''''           ''''###############################       
              ,#####''   ,,,,##########,,,,          '''####'''          '####       
            ,##' ,,,,###########################,,,                        '##       
           ' ,,###''''                  '''############,,,                           
         ,,##''                                '''############,,,,        ,,,,,,###''
      ,#''                                            '''#######################'''  
     '                                                          ''''####''''         
             ,#######,   #######,   ,#######,      ##                                
            ,#'     '#,  ##    ##  ,#'     '#,    #''#        ,####,   ,####,        
            ##       ##  ##   ,#'  ##            #'  '#       #'       #'  '#        
            ##       ##  #######   ##           ,######,      #####,   #    #        
            '#,     ,#'  ##    ##  '#,     ,#' ,#      #,     #,   #   #,  ,#        
             '#######'   ##     ##  '#######'  #'      '#     '####' # '####'        



                #########################################################
                #                        -***-                          #
                #          Department of theory and spectroscopy        #
                #                                                       #
                #                      Frank Neese                      #
                #                                                       #
                #     Directorship, Architecture, Infrastructure        #
                #                    SHARK, DRIVERS                     #
                #        Core code/Algorithms in most modules           #
                #                                                       #
                #        Max Planck Institute fuer Kohlenforschung      #
                #                Kaiser Wilhelm Platz 1                 #
                #                 D-45470 Muelheim/Ruhr                 #
                #                      Germany                          #
                #                                                       #
                #                  All rights reserved                  #
                #                        -***-                          #
                #########################################################


                         Program Version 6.0.0  -   RELEASE  -


 With contributions from (in alphabetic order):
   Daniel Aravena         : Magnetic Suceptibility
   Michael Atanasov       : Ab Initio Ligand Field Theory (pilot matlab implementation)
   Alexander A. Auer      : GIAO ZORA, VPT2 properties, NMR spectrum
   Ute Becker             : All parallelization in ORCA, NUMFREQ, NUMCALC
   Giovanni Bistoni       : ED, misc. LED, open-shell LED, HFLD
   Martin Brehm           : Molecular dynamics
   Dmytro Bykov           : pre 5.0 version of the SCF Hessian
   Marcos Casanova-Páez   : Triplet and SCS-CIS(D). UHF-(DLPNO)-IP/EA/STEOM-CCSD. UHF-CVS-IP/STEOM-CCSD
   Vijay G. Chilkuri      : MRCI spin determinant printing, contributions to CSF-ICE
   Pauline Colinet        : FMM embedding
   Dipayan Datta          : RHF DLPNO-CCSD density
   Achintya Kumar Dutta   : EOM-CC, STEOM-CC
   Nicolas Foglia         : Exact transition moments, OPA infrastructure, MCD improvements
   Dmitry Ganyushin       : Spin-Orbit,Spin-Spin,Magnetic field MRCI
   Miquel Garcia          : C-PCM and meta-GGA Hessian, CCSD/C-PCM, Gaussian charge scheme
   Tiago L. C. Gouveia    : GS-ROHF, GS-ROCIS
   Yang Guo               : DLPNO-NEVPT2, F12-NEVPT2, CIM, IAO-localization
   Andreas Hansen         : Spin unrestricted coupled pair/coupled cluster methods
   Ingolf Harden          : AUTO-CI MPn and infrastructure 
   Benjamin Helmich-Paris : MC-RPA, TRAH-(SCF,CASSCF), AVAS, COSX integrals, SCF dyn. polar.
   Lee Huntington         : MR-EOM, pCC
   Robert Izsak           : Overlap fitted RIJCOSX, COSX-SCS-MP3, EOM
   Riya Kayal             : Wick's Theorem for AUTO-CI, AUTO-CI UHF-CCSDT
   Emily Kempfer          : AUTO-CI, RHF CISDT and CCSDT
   Christian Kollmar      : KDIIS, OOCD, Brueckner-CCSD(T), CCSD density, CASPT2, CASPT2-K, improved NEVPT2
   Axel Koslowski         : Symmetry handling
   Simone Kossmann        : Meta GGA functionals, TD-DFT gradient, OOMP2, (MP2 Hessian; deprecated post 5.0)
   Lucas Lang             : DCDCAS
   Marvin Lechner         : AUTO-CI (C++ implementation), FIC-MRCC
   Spencer Leger          : CASSCF response
   Dagmar Lenk            : GEPOL surface, SMD, ORCA-2-JSON
   Dimitrios Liakos       : Extrapolation schemes; Compound Job, initial MDCI parallelization
   Dimitrios Manganas     : Further ROCIS development; embedding schemes. LFT, Crystal Embedding
   Dimitrios Pantazis     : SARC Basis sets
   Anastasios Papadopoulos: AUTO-CI, single reference methods and gradients
   Taras Petrenko         : pre 6.0 DFT Hessian and TD-DFT gradient, (ASA, deprecated), ECA, 1-Electron XAS/XES, NRVS
   Peter Pinski           : DLPNO-MP2, DLPNO-MP2 Gradient
   Christoph Reimann      : Effective Core Potentials
   Marius Retegan         : Local ZFS, SOC
   Christoph Riplinger    : Optimizer, TS searches, QM/MM, DLPNO-CCSD(T), (RO)-DLPNO pert. Triples
   Michael Roemelt        : Original ROCIS implementation
   Masaaki Saitow         : Open-shell DLPNO-CCSD energy and density
   Barbara Sandhoefer     : DKH picture change effects
   Kantharuban Sivalingam : CASSCF convergence/infrastructure, NEVPT2 and variants, FIC-MRCI
   Bernardo de Souza      : ESD, SOC TD-DFT
   Georgi Stoychev        : AutoAux, RI-MP2 NMR, DLPNO-MP2 response, X2C
   Van Anh Tran           : RI-MP2 g-tensors
   Willem Van den Heuvel  : Paramagnetic NMR
   Zikuan Wang            : NOTCH, Electric field optimization 
   Frank Wennmohs         : Technical directorship and infrastructure
   Hang Xu                : AUTO-CI-Response properties 


 We gratefully acknowledge several colleagues who have allowed us to
 interface, adapt or use parts of their codes:
   Stefan Grimme, W. Hujo, H. Kruse, P. Pracht,  : VdW corrections, initial TS optimization,
                  C. Bannwarth, S. Ehlert,         DFT functionals, gCP, sTDA/sTD-DF
                  L. Wittmann, M. Mueller
   Ed Valeev, F. Pavosevic, A. Kumar             : LibInt (2-el integral package), F12 methods
   Garnet Chan, S. Sharma, J. Yang, R. Olivares  : DMRG
   Ulf Ekstrom                                   : XCFun DFT Library
   Mihaly Kallay                                 : mrcc  (arbitrary order and MRCC methods)
   Frank Weinhold                                : gennbo (NPA and NBO analysis)
   Simon Mueller                                 : openCOSMO-RS
   Christopher J. Cramer and Donald G. Truhlar   : smd solvation model
   Lars Goerigk                                  : TD-DFT with DH, B97 family of functionals
   V. Asgeirsson, H. Jonsson                     : NEB implementation
   FAccTs GmbH                                   : IRC, NEB, NEB-TS, DLPNO-Multilevel, CI-OPT
                                                   MM, QMMM, 2- and 3-layer-ONIOM, Crystal-QMMM,
                                                   LR-CPCM, SF, NACMEs, symmetry and pop. for TD-DFT,
                                                   nearIR, NL-DFT gradient (VV10), updates on ESD,
                                                   ML-optimized integration grids, MBIS, APM,
                                                   GOAT, DOCKER, SOLVATOR, interface openCOSMO-RS
   S Lehtola, MJT Oliveira, MAL Marques          : LibXC Library
   Liviu Ungur et al                             : ANISO software


 Your calculation uses the libint2 library for the computation of 2-el integrals
 For citations please refer to: http://libint.valeyev.net

 Your ORCA version has been built with support for libXC version: 6.2.2
 For citations please refer to: https://libxc.gitlab.io

 This ORCA versions uses:
   CBLAS   interface :  Fast vector & matrix operations
   LAPACKE interface :  Fast linear algebra routines
   SCALAPACK package :  Parallel linear algebra routines
   Shared memory     :  Shared parallel matrices
   BLAS/LAPACK       :  OpenBLAS 0.3.27  USE64BITINT DYNAMIC_ARCH NO_AFFINITY Zen SINGLE_THREADED
        Core in use  :  Zen
   Copyright (c) 2011-2014, The OpenBLAS Project


Your calculation utilizes the atom-pairwise dispersion correction
with the Becke-Johnson damping scheme (D3BJ)


Warning: RI is on but no J-basis has been assigned. Assigning Def2/J (nothing to worry about!)
================================================================================

----- Orbital basis set information -----
Your calculation utilizes the basis: def2-TZVPPD
   F. Weigend and R. Ahlrichs, Phys. Chem. Chem. Phys. 7, 3297 (2005).
   D. Rappoport and F. Furche, J. Chem. Phys. 133, 134105 (2010)
   D. Rappoport, J. Chem. Phys. 155, 124102 (2021).

----- AuxJ basis set information -----
Your calculation utilizes the auxiliary basis: def2/J
   F. Weigend, Phys. Chem. Chem. Phys. 8, 1057 (2006).

================================================================================
                                        WARNINGS
                       Please study these warnings very carefully!
================================================================================

Using LibXC functional ID 531 : wB97M-V exchange-correlation functional
[ 1]  N. Mardirossian and M. Head-Gordon.,  J. Chem. Phys. 144, 214110 (2016)
Using LibXC functional ID 531 : wB97M-V exchange-correlation functional
[ 1]  N. Mardirossian and M. Head-Gordon.,  J. Chem. Phys. 144, 214110 (2016)

WARNING: B97M-V or wB97M-V functional requested.
  ===> : libXC variant has now been activated.
         Any manually given DFX/HFX/RangeSep scaling parameters are IGNORED!

Your calculation utilizes LibXC
 by S Lehtola, C Steigemann, MJT Oliveira & MAL Marques
Please cite in your paper:
 S Lehtola, C Steigemann, MJT Oliveira & MAL Marques, SoftwareX, 7, (2018), 1.
   


WARNING: your system is open-shell and RHF/RKS was chosen
  ===> : WILL SWITCH to UHF/UKS

INFO   : Checking CIS options ...

WARNING: CIS/ROCIS methods need fully converged wavefunctions
  ===> : Setting SCFConvForced true
         You can overwrite this default with %scf ConvForced false 


================================================================================
                                       INPUT FILE
================================================================================
NAME = orca.inp
|  1> ! Engrad def2-TZVPPD wB97M-D3BJ 
|  2> %pal nprocs 8 end%pal nprocs 64 end 
|  3>  %tddft nroots 2 Iroot 2 
|  4> sf true 
|  5> end 
|  6> *xyz 0 3 
|  7> O   3.12337495643686 0.51330335833155 -0.886249345843
|  8> O   -0.48586073622016 1.3924902587012 -2.30873518179894
|  9> O   0.41620037315636 -3.06832948552586 -0.50234316073261
| 10> O   -3.11200198445753 -1.64043188067527 -0.29221372282425
| 11> N   0.30426886196855 -1.49829811734919 1.13079846411055
| 12> N   -2.13422297578343 -0.06836089405897 1.03233909431467
| 13> N   1.57184401545295 -1.13680668962589 -0.79103162929346
| 14> N   -1.49172516268799 -0.31018051409782 -1.18793162793091
| 15> C   1.6396588342537 0.53157972134555 0.94233069283678
| 16> C   -0.68191424517048 1.58023807821192 0.04756031420119
| 17> C   0.37671578787624 -0.12521248473174 1.5730173070579
| 18> C   -0.95467803253268 0.71689886156854 1.27177532522822
| 19> C   2.36460697492905 1.57438113342902 1.68867047926256
| 20> C   -0.63241902723336 3.05027345264469 0.13056095501935
| 21> C   2.18755968267381 0.00436791856254 -0.30076922744344
| 22> C   -0.85032314903363 0.92472731971439 -1.25095770976622
| 23> C   0.72701479661088 -1.97776360289232 -0.08237381584969
| 24> C   -2.30905266984151 -0.75190883271347 -0.14668878128826
| 25> H   0.51377612714986 -0.14956994035703 2.6573114073163
| 26> H   -1.14177478047129 1.363402955809 2.12616220053039
| 27> H   3.18003119113204 1.97031991288222 1.09238920710122
| 28> H   1.70082739958199 2.39192806449738 1.98463296122799
| 29> H   2.7677757990134 1.15734409297148 2.6179597353941
| 30> H   -1.610481926976 3.44224905892258 0.43271858355931
| 31> H   0.08083929287975 3.37896063516507 0.89079050075391
| 32> H   -0.36661906664661 3.47730452129067 -0.83130213912156
| 33> H   -0.33814916446183 -2.12219037662125 1.58743866294016
| 34> H   -2.69570235331927 -0.40675953915545 1.79350532917329
| 35> H   1.93839500715118 -1.51395569793485 -1.6494360089758
| 36> H   -1.63536382543084 -0.78500128830873 -2.06532886915973
| 37> *
| 38> 
| 39>                          ****END OF INPUT****
================================================================================

                     *******************************
                     * Energy+Gradient Calculation *
                     *******************************

---------------------------------
CARTESIAN COORDINATES (ANGSTROEM)
---------------------------------
  O      3.123375    0.513303   -0.886249
  O     -0.485861    1.392490   -2.308735
  O      0.416200   -3.068329   -0.502343
  O     -3.112002   -1.640432   -0.292214
  N      0.304269   -1.498298    1.130798
  N     -2.134223   -0.068361    1.032339
  N      1.571844   -1.136807   -0.791032
  N     -1.491725   -0.310181   -1.187932
  C      1.639659    0.531580    0.942331
  C     -0.681914    1.580238    0.047560
  C      0.376716   -0.125212    1.573017
  C     -0.954678    0.716899    1.271775
  C      2.364607    1.574381    1.688670
  C     -0.632419    3.050273    0.130561
  C      2.187560    0.004368   -0.300769
  C     -0.850323    0.924727   -1.250958
  C      0.727015   -1.977764   -0.082374
  C     -2.309053   -0.751909   -0.146689
  H      0.513776   -0.149570    2.657311
  H     -1.141775    1.363403    2.126162
  H      3.180031    1.970320    1.092389
  H      1.700827    2.391928    1.984633
  H      2.767776    1.157344    2.617960
  H     -1.610482    3.442249    0.432719
  H      0.080839    3.378961    0.890791
  H     -0.366619    3.477305   -0.831302
  H     -0.338149   -2.122190    1.587439
  H     -2.695702   -0.406760    1.793505
  H      1.938395   -1.513956   -1.649436
  H     -1.635364   -0.785001   -2.065329

----------------------------
CARTESIAN COORDINATES (A.U.)
----------------------------
  NO LB      ZA    FRAG     MASS         X           Y           Z
   0 O     8.0000    0    15.999    5.902323    0.970003   -1.674769
   1 O     8.0000    0    15.999   -0.918144    2.631425   -4.362877
   2 O     8.0000    0    15.999    0.786505   -5.798302   -0.949291
   3 O     8.0000    0    15.999   -5.880831   -3.099967   -0.552204
   4 N     7.0000    0    14.007    0.574985   -2.831373    2.136899
   5 N     7.0000    0    14.007   -4.033097   -0.129183    1.950838
   6 N     7.0000    0    14.007    2.970355   -2.148253   -1.494833
   7 N     7.0000    0    14.007   -2.818952   -0.586156   -2.244865
   8 C     6.0000    0    12.011    3.098506    1.004540    1.780747
   9 C     6.0000    0    12.011   -1.288631    2.986217    0.089876
  10 C     6.0000    0    12.011    0.711890   -0.236617    2.972572
  11 C     6.0000    0    12.011   -1.804080    1.354743    2.403307
  12 C     6.0000    0    12.011    4.468460    2.975149    3.191125
  13 C     6.0000    0    12.011   -1.195099    5.764181    0.246724
  14 C     6.0000    0    12.011    4.133889    0.008254   -0.568371
  15 C     6.0000    0    12.011   -1.606878    1.747481   -2.363967
  16 C     6.0000    0    12.011    1.373859   -3.737432   -0.155664
  17 C     6.0000    0    12.011   -4.363477   -1.420902   -0.277202
  18 H     1.0000    0     1.008    0.970896   -0.282646    5.021591
  19 H     1.0000    0     1.008   -2.157642    2.576458    4.017864
  20 H     1.0000    0     1.008    6.009388    3.723365    2.064316
  21 H     1.0000    0     1.008    3.214098    4.520089    3.750413
  22 H     1.0000    0     1.008    5.230338    2.187063    4.947227
  23 H     1.0000    0     1.008   -3.043370    6.504908    0.817720
  24 H     1.0000    0     1.008    0.152764    6.385310    1.683350
  25 H     1.0000    0     1.008   -0.692810    6.571153   -1.570933
  26 H     1.0000    0     1.008   -0.639009   -4.010359    2.999824
  27 H     1.0000    0     1.008   -5.094139   -0.768664    3.389234
  28 H     1.0000    0     1.008    3.663036   -2.860962   -3.116982
  29 H     1.0000    0     1.008   -3.090390   -1.483437   -3.902906

--------------------------------
INTERNAL COORDINATES (ANGSTROEM)
--------------------------------
 O      0   0   0     0.000000000000     0.00000000     0.00000000
 O      1   0   0     3.977815712728     0.00000000     0.00000000
 O      1   2   0     4.506026188508    70.18566618     0.00000000
 O      3   1   2     3.811988697109   105.24951049   333.70001373
 N      3   1   2     2.268188424062    62.66435500   276.59199368
 N      4   3   1     2.276378514693    83.86939570   319.48955706
 N      1   2   3     2.266975483931    63.57096314   359.66901309
 N      2   1   3     2.273114957793    93.41814605    19.90207759
 C      1   2   3     2.354878450054    72.79972829   292.11121736
 C      2   1   3     2.371879989918    74.76602097    79.81899479
 C      5   3   1     1.444358063858   151.16505682    33.46340514
 C      6   4   3     1.437111292013   145.77648940    35.10125082
 C      9   1   2     1.473094589127    95.09689519   238.47469972
 C     10   2   1     1.473208364441    97.59547187   102.35551197
 C      1   2   3     1.215546164283    64.29401825   324.40914162
 C      2   1   3     1.212653370829    82.84881590    49.70631165
 C      3   1   2     1.209261675913    32.68356816   284.50274408
 C      4   3   1     1.206390615518    70.51883017   347.29881071
 H     11   5   3     1.093193723958   106.78519679   197.82682326
 H     12   6   4     1.087634897218   108.32969817   178.35317482
 H     13   9   1     1.085004850208   110.47151808     5.71960203
 H     13   9   1     1.093883037568   111.56285272   127.62885016
 H     13   9   1     1.095464976797   109.96332610   245.14225408
 H     14  10   2     1.096152883614   110.02162334   110.79520723
 H     14  10   2     1.093033237085   111.17224018   228.44969305
 H     14  10   2     1.085442658323   110.54057673   350.62232412
 H      5   3   1     1.005217759020    85.92898152   184.47672750
 H      6   4   3     1.004562975373    88.17604716   244.39306116
 H      7   1   2     1.006707049266    89.29418145    96.59033762
 H      8   2   1     1.007924973385    89.23860767   250.25094332

---------------------------
INTERNAL COORDINATES (A.U.)
---------------------------
 O      0   0   0     0.000000000000     0.00000000     0.00000000
 O      1   0   0     7.516982308265     0.00000000     0.00000000
 O      1   2   0     8.515155448558    70.18566618     0.00000000
 O      3   1   2     7.203614663139   105.24951049   333.70001373
 N      3   1   2     4.286254941608    62.66435500   276.59199368
 N      4   3   1     4.301731969912    83.86939570   319.48955706
 N      1   2   3     4.283962816944    63.57096314   359.66901309
 N      2   1   3     4.295564741148    93.41814605    19.90207759
 C      1   2   3     4.450075349275    72.79972829   292.11121736
 C      2   1   3     4.482203603473    74.76602097    79.81899479
 C      5   3   1     2.729441180012   151.16505682    33.46340514
 C      6   4   3     2.715746765870   145.77648940    35.10125082
 C      9   1   2     2.783745342810    95.09689519   238.47469972
 C     10   2   1     2.783960346995    97.59547187   102.35551197
 C      1   2   3     2.297049353633    64.29401825   324.40914162
 C      2   1   3     2.291582766244    82.84881590    49.70631165
 C      3   1   2     2.285173391723    32.68356816   284.50274408
 C      4   3   1     2.279747873862    70.51883017   347.29881071
 H     11   5   3     2.065836749602   106.78519679   197.82682326
 H     12   6   4     2.055332089439   108.32969817   178.35317482
 H     13   9   1     2.050362020870   110.47151808     5.71960203
 H     13   9   1     2.067139363545   111.56285272   127.62885016
 H     13   9   1     2.070128795449   109.96332610   245.14225408
 H     14  10   2     2.071428750938   110.02162334   110.79520723
 H     14  10   2     2.065533473363   111.17224018   228.44969305
 H     14  10   2     2.051189358306   110.54057673   350.62232412
 H      5   3   1     1.899586269502    85.92898152   184.47672750
 H      6   4   3     1.898348907732    88.17604716   244.39306116
 H      7   1   2     1.902400620200    89.29418145    96.59033762
 H      8   2   1     1.904702163237    89.23860767   250.25094332

---------------------
BASIS SET INFORMATION
---------------------
There are 4 groups of distinct atoms

 Group   1 Type O   : 12s7p3d1f contracted to 6s4p3d1f pattern {621111/4111/111/1}
 Group   2 Type N   : 12s6p3d1f contracted to 6s3p3d1f pattern {621111/411/111/1}
 Group   3 Type C   : 12s6p3d1f contracted to 6s3p3d1f pattern {621111/411/111/1}
 Group   4 Type H   : 5s3p1d contracted to 3s3p1d pattern {311/111/1}

Atom   0O    basis set group =>   1
Atom   1O    basis set group =>   1
Atom   2O    basis set group =>   1
Atom   3O    basis set group =>   1
Atom   4N    basis set group =>   2
Atom   5N    basis set group =>   2
Atom   6N    basis set group =>   2
Atom   7N    basis set group =>   2
Atom   8C    basis set group =>   3
Atom   9C    basis set group =>   3
Atom  10C    basis set group =>   3
Atom  11C    basis set group =>   3
Atom  12C    basis set group =>   3
Atom  13C    basis set group =>   3
Atom  14C    basis set group =>   3
Atom  15C    basis set group =>   3
Atom  16C    basis set group =>   3
Atom  17C    basis set group =>   3
Atom  18H    basis set group =>   4
Atom  19H    basis set group =>   4
Atom  20H    basis set group =>   4
Atom  21H    basis set group =>   4
Atom  22H    basis set group =>   4
Atom  23H    basis set group =>   4
Atom  24H    basis set group =>   4
Atom  25H    basis set group =>   4
Atom  26H    basis set group =>   4
Atom  27H    basis set group =>   4
Atom  28H    basis set group =>   4
Atom  29H    basis set group =>   4
---------------------------------
AUXILIARY/J BASIS SET INFORMATION
---------------------------------
There are 4 groups of distinct atoms

 Group   1 Type O   : 12s5p4d2f1g contracted to 6s4p3d1f1g pattern {711111/2111/211/2/1}
 Group   2 Type N   : 12s5p4d2f1g contracted to 6s4p3d1f1g pattern {711111/2111/211/2/1}
 Group   3 Type C   : 12s5p4d2f1g contracted to 6s4p3d1f1g pattern {711111/2111/211/2/1}
 Group   4 Type H   : 5s2p1d contracted to 3s1p1d pattern {311/2/1}

Atom   0O    basis set group =>   1
Atom   1O    basis set group =>   1
Atom   2O    basis set group =>   1
Atom   3O    basis set group =>   1
Atom   4N    basis set group =>   2
Atom   5N    basis set group =>   2
Atom   6N    basis set group =>   2
Atom   7N    basis set group =>   2
Atom   8C    basis set group =>   3
Atom   9C    basis set group =>   3
Atom  10C    basis set group =>   3
Atom  11C    basis set group =>   3
Atom  12C    basis set group =>   3
Atom  13C    basis set group =>   3
Atom  14C    basis set group =>   3
Atom  15C    basis set group =>   3
Atom  16C    basis set group =>   3
Atom  17C    basis set group =>   3
Atom  18H    basis set group =>   4
Atom  19H    basis set group =>   4
Atom  20H    basis set group =>   4
Atom  21H    basis set group =>   4
Atom  22H    basis set group =>   4
Atom  23H    basis set group =>   4
Atom  24H    basis set group =>   4
Atom  25H    basis set group =>   4
Atom  26H    basis set group =>   4
Atom  27H    basis set group =>   4
Atom  28H    basis set group =>   4
Atom  29H    basis set group =>   4
[1738807674.475436] [ohm:3087632:0]        ib_iface.c:1059 UCX  ERROR ibv_create_cq(cqe=256) failed: Connection timed out
[1738807674.476019] [ohm:3087629:0]        ib_iface.c:1059 UCX  ERROR ibv_create_cq(cqe=256) failed: Connection timed out
[1738807674.496016] [ohm:3087634:0]        ib_iface.c:1059 UCX  ERROR ibv_create_cq(cqe=256) failed: Connection timed out
[1738807674.496622] [ohm:3087633:0]        ib_iface.c:1059 UCX  ERROR ibv_create_cq(cqe=256) failed: Connection timed out
[1738807674.504798] [ohm:3087637:0]        ib_iface.c:1059 UCX  ERROR ibv_create_cq(cqe=256) failed: Connection timed out
[1738807674.508622] [ohm:3087642:0]        ib_iface.c:1059 UCX  ERROR ibv_create_cq(cqe=256) failed: Connection timed out
[1738807674.520012] [ohm:3087635:0]        ib_iface.c:1059 UCX  ERROR ibv_create_cq(cqe=256) failed: Connection timed out
[1738807674.527986] [ohm:3087651:0]        ib_iface.c:1059 UCX  ERROR ibv_create_cq(cqe=256) failed: Connection timed out
[1738807674.528728] [ohm:3087630:0]        ib_iface.c:1059 UCX  ERROR ibv_create_cq(cqe=256) failed: Connection timed out
[1738807674.531953] [ohm:3087648:0]        ib_iface.c:1059 UCX  ERROR ibv_create_cq(cqe=256) failed: Connection timed out
[1738807674.535519] [ohm:3087652:0]        ib_iface.c:1059 UCX  ERROR ibv_create_cq(cqe=256) failed: Connection timed out
[1738807674.536048] [ohm:3087639:0]        ib_iface.c:1059 UCX  ERROR ibv_create_cq(cqe=256) failed: Connection timed out
[1738807674.536115] [ohm:3087636:0]        ib_iface.c:1059 UCX  ERROR ibv_create_cq(cqe=256) failed: Connection timed out
[1738807674.539148] [ohm:3087654:0]        ib_iface.c:1059 UCX  ERROR ibv_create_cq(cqe=256) failed: Connection timed out
[1738807674.568554] [ohm:3087650:0]        ib_iface.c:1059 UCX  ERROR ibv_create_cq(cqe=256) failed: Connection timed out
[1738807674.581675] [ohm:3087641:0]        ib_iface.c:1059 UCX  ERROR ibv_create_cq(cqe=256) failed: Connection timed out
[1738807674.582304] [ohm:3087653:0]        ib_iface.c:1059 UCX  ERROR ibv_create_cq(cqe=256) failed: Connection timed out
[1738807674.582872] [ohm:3087638:0]        ib_iface.c:1059 UCX  ERROR ibv_create_cq(cqe=256) failed: Connection timed out
[1738807674.584502] [ohm:3087647:0]        ib_iface.c:1059 UCX  ERROR ibv_create_cq(cqe=256) failed: Connection timed out
[1738807674.614122] [ohm:3087689:0]        ib_iface.c:1059 UCX  ERROR ibv_create_cq(cqe=256) failed: Connection timed out
[1738807674.616944] [ohm:3087680:0]        ib_iface.c:1059 UCX  ERROR ibv_create_cq(cqe=256) failed: Connection timed out
[1738807674.621098] [ohm:3087708:0]        ib_iface.c:1059 UCX  ERROR ibv_create_cq(cqe=256) failed: Connection timed out
[1738807674.629540] [ohm:3087643:0]        ib_iface.c:1059 UCX  ERROR ibv_create_cq(cqe=256) failed: Connection timed out
[1738807674.635437] [ohm:3087660:0]        ib_iface.c:1059 UCX  ERROR ibv_create_cq(cqe=256) failed: Connection timed out
[1738807674.642231] [ohm:3087752:0]        ib_iface.c:1059 UCX  ERROR ibv_create_cq(cqe=256) failed: Connection timed out
[1738807674.655931] [ohm:3087658:0]        ib_iface.c:1059 UCX  ERROR ibv_create_cq(cqe=256) failed: Connection timed out
[1738807674.662794] [ohm:3087685:0]        ib_iface.c:1059 UCX  ERROR ibv_create_cq(cqe=256) failed: Connection timed out
[1738807674.676564] [ohm:3087711:0]        ib_iface.c:1059 UCX  ERROR ibv_create_cq(cqe=256) failed: Connection timed out
[1738807674.676614] [ohm:3087754:0]        ib_iface.c:1059 UCX  ERROR ibv_create_cq(cqe=256) failed: Connection timed out
[1738807674.678696] [ohm:3087747:0]        ib_iface.c:1059 UCX  ERROR ibv_create_cq(cqe=256) failed: Connection timed out
[1738807674.683460] [ohm:3087771:0]        ib_iface.c:1059 UCX  ERROR ibv_create_cq(cqe=256) failed: Connection timed out
[1738807674.695410] [ohm:3087649:0]        ib_iface.c:1059 UCX  ERROR ibv_create_cq(cqe=256) failed: Connection timed out
[1738807674.695448] [ohm:3087726:0]        ib_iface.c:1059 UCX  ERROR ibv_create_cq(cqe=256) failed: Connection timed out
[1738807674.697092] [ohm:3087736:0]        ib_iface.c:1059 UCX  ERROR ibv_create_cq(cqe=256) failed: Connection timed out
[1738807674.697570] [ohm:3087656:0]        ib_iface.c:1059 UCX  ERROR ibv_create_cq(cqe=256) failed: Connection timed out
[1738807674.703789] [ohm:3087767:0]        ib_iface.c:1059 UCX  ERROR ibv_create_cq(cqe=256) failed: Connection timed out
[1738807674.705881] [ohm:3087674:0]        ib_iface.c:1059 UCX  ERROR ibv_create_cq(cqe=256) failed: Connection timed out
[1738807674.708093] [ohm:3087719:0]        ib_iface.c:1059 UCX  ERROR ibv_create_cq(cqe=256) failed: Connection timed out
[1738807674.712031] [ohm:3087665:0]        ib_iface.c:1059 UCX  ERROR ibv_create_cq(cqe=256) failed: Connection timed out
[1738807674.714035] [ohm:3087702:0]        ib_iface.c:1059 UCX  ERROR ibv_create_cq(cqe=256) failed: Connection timed out
[1738807674.722891] [ohm:3087730:0]        ib_iface.c:1059 UCX  ERROR ibv_create_cq(cqe=256) failed: Connection timed out
[1738807674.725719] [ohm:3087669:0]        ib_iface.c:1059 UCX  ERROR ibv_create_cq(cqe=256) failed: Connection timed out
[1738807674.725851] [ohm:3087645:0]        ib_iface.c:1059 UCX  ERROR ibv_create_cq(cqe=256) failed: Connection timed out
[1738807674.728788] [ohm:3087756:0]        ib_iface.c:1059 UCX  ERROR ibv_create_cq(cqe=256) failed: Connection timed out
[1738807674.732375] [ohm:3087699:0]        ib_iface.c:1059 UCX  ERROR ibv_create_cq(cqe=256) failed: Connection timed out
[1738807674.733029] [ohm:3087742:0]        ib_iface.c:1059 UCX  ERROR ibv_create_cq(cqe=256) failed: Connection timed out
[1738807674.744098] [ohm:3087640:0]        ib_iface.c:1059 UCX  ERROR ibv_create_cq(cqe=256) failed: Connection timed out
[1738807674.746295] [ohm:3087696:0]        ib_iface.c:1059 UCX  ERROR ibv_create_cq(cqe=256) failed: Connection timed out
[1738807674.747956] [ohm:3087748:0]        ib_iface.c:1059 UCX  ERROR ibv_create_cq(cqe=256) failed: Connection timed out
[1738807674.759541] [ohm:3087733:0]        ib_iface.c:1059 UCX  ERROR ibv_create_cq(cqe=256) failed: Connection timed out
[1738807674.761768] [ohm:3087764:0]        ib_iface.c:1059 UCX  ERROR ibv_create_cq(cqe=256) failed: Connection timed out
[1738807674.765509] [ohm:3087758:0]        ib_iface.c:1059 UCX  ERROR ibv_create_cq(cqe=256) failed: Connection timed out
[1738807674.772241] [ohm:3087646:0]        ib_iface.c:1059 UCX  ERROR ibv_create_cq(cqe=256) failed: Connection timed out
[1738807674.775583] [ohm:3087684:0]        ib_iface.c:1059 UCX  ERROR ibv_create_cq(cqe=256) failed: Connection timed out
[1738807674.779134] [ohm:3087692:0]        ib_iface.c:1059 UCX  ERROR ibv_create_cq(cqe=256) failed: Connection timed out
[1738807674.779112] [ohm:3087723:0]        ib_iface.c:1059 UCX  ERROR ibv_create_cq(cqe=256) failed: Connection timed out
[1738807674.780534] [ohm:3087662:0]        ib_iface.c:1059 UCX  ERROR ibv_create_cq(cqe=256) failed: Connection timed out
[1738807674.780995] [ohm:3087705:0]        ib_iface.c:1059 UCX  ERROR ibv_create_cq(cqe=256) failed: Connection timed out
[1738807674.781982] [ohm:3087655:0]        ib_iface.c:1059 UCX  ERROR ibv_create_cq(cqe=256) failed: Connection timed out
[1738807674.782157] [ohm:3087657:0]        ib_iface.c:1059 UCX  ERROR ibv_create_cq(cqe=256) failed: Connection timed out
[1738807674.782494] [ohm:3087644:0]        ib_iface.c:1059 UCX  ERROR ibv_create_cq(cqe=256) failed: Connection timed out
[1738807674.784399] [ohm:3087631:0]        ib_iface.c:1059 UCX  ERROR ibv_create_cq(cqe=256) failed: Connection timed out
[1738807674.784989] [ohm:3087715:0]        ib_iface.c:1059 UCX  ERROR ibv_create_cq(cqe=256) failed: Connection timed out
[1738807674.785265] [ohm:3087740:0]        ib_iface.c:1059 UCX  ERROR ibv_create_cq(cqe=256) failed: Connection timed out


           ************************************************************
           *        Program running with 64 parallel MPI-processes    *
           *              working on a common directory               *
           ************************************************************
------------------------------------------------------------------------------
                             ORCA STARTUP CALCULATIONS
                           -- RI-GTO INTEGRALS CHOSEN --
------------------------------------------------------------------------------
------------------------------------------------------------------------------
                   ___                                                        
                  /   \      - P O W E R E D   B Y -                         
                 /     \                                                     
                 |  |  |   _    _      __       _____    __    __             
                 |  |  |  | |  | |    /  \     |  _  \  |  |  /  |          
                  \  \/   | |  | |   /    \    | | | |  |  | /  /          
                 / \  \   | |__| |  /  /\  \   | |_| |  |  |/  /          
                |  |  |   |  __  | /  /__\  \  |    /   |      \           
                |  |  |   | |  | | |   __   |  |    \   |  |\   \          
                \     /   | |  | | |  |  |  |  | |\  \  |  | \   \       
                 \___/    |_|  |_| |__|  |__|  |_| \__\ |__|  \__/        
                                                                              
                      - O R C A' S   B I G   F R I E N D -                    
                                      &                                       
                       - I N T E G R A L  F E E D E R -                       
                                                                              
 v1 FN, 2020, v2 2021, v3 2022-2024                                           
------------------------------------------------------------------------------


----------------------
SHARK INTEGRAL PACKAGE
----------------------

Number of atoms                             ...     30
Number of basis functions                   ...    882
Number of shells                            ...    322
Maximum angular momentum                    ...      3
Integral batch strategy                     ... SHARK/LIBINT Hybrid
RI-J (if used) integral strategy            ... SPLIT-RIJ (Revised 2003 algorithm where possible)
Printlevel                                  ...      1
Contraction scheme used                     ... SEGMENTED contraction
Prescreening option                         ... SCHWARTZ
   Thresh                                   ... 2.500e-11
   Tcut                                     ... 2.500e-12
   Tpresel                                  ... 2.500e-12 
Coulomb Range Separation                    ... NOT USED
Exchange Range Separation                   ... Long Range
   Mu parameter                             ... 3.000e-01
   Scaling (regular/separated)              ... 1.500e-01 8.500e-01
Multipole approximations                    ... NOT USED
Finite Nucleus Model                        ... NOT USED
CABS basis                                  ... NOT available
Auxiliary Coulomb fitting basis             ... AVAILABLE
   # of basis functions in Aux-J            ...   1014
   # of shells in Aux-J                     ...    330
   Maximum angular momentum in Aux-J        ...      4
Auxiliary J/K fitting basis                 ... NOT available
Auxiliary Correlation fitting basis         ... NOT available
Auxiliary 'external' fitting basis          ... NOT available

Checking pre-screening integrals            ... done (  0.0 sec) Dimension = 322
Check shell pair data                       ... done (  0.0 sec)
Shell pair information
Shell pair cut-off parameter TPreSel        ...   2.5e-12
Total number of shell pairs                 ...     52003
Shell pairs after pre-screening             ...     45276
Total number of primitive shell pairs       ...    129718
Primitive shell pairs kept                  ...     84643
          la=0 lb=0:   8763 shell pairs
          la=1 lb=0:  11962 shell pairs
          la=1 lb=1:   4123 shell pairs
          la=2 lb=0:   8125 shell pairs
          la=2 lb=1:   5615 shell pairs
          la=2 lb=2:   1939 shell pairs
          la=3 lb=0:   2097 shell pairs
          la=3 lb=1:   1490 shell pairs
          la=3 lb=2:   1019 shell pairs
          la=3 lb=3:    143 shell pairs

Calculating one electron integrals          ... done (  0.2 sec)
Calculating RI/J V-Matrix + Cholesky decomp.... done (  0.0 sec)
Calculating Nuclear repulsion               ... done (  0.0 sec) ENN=   1459.964473978732 Eh

Diagonalization of the overlap matrix:
Smallest eigenvalue                        ... 4.147e-07
Time for diagonalization                   ...    0.130 sec
Threshold for overlap eigenvalues          ... 1.000e-07
Number of eigenvalues below threshold      ... 0

IMPORTANT:
Smallest eigenvalue of S below the DiffSThresh (1.000e-06) while
Thresh>1e-12 and/or TCut>1e-13! In order to avoid SCF convergence issues,
Thresh will be set to at least 1e-12 and TCut to at least 1e-13.
This can be turned off by adding %SCF DiffSThresh -1 END to the input.

Time for construction of square roots      ...    0.131 sec
Total time needed                          ...    0.274 sec

-------------------
DFT GRID GENERATION
-------------------

General Integration Accuracy     IntAcc      ... 4.388
Radial Grid Type                 RadialGrid  ... OptM3 with GC (2021)
Angular Grid (max. ang.)         AngularGrid ... 4 (Lebedev-302)
Angular grid pruning method      GridPruning ... 4 (adaptive)
Weight generation scheme         WeightScheme... mBecke (2022)
Basis function cutoff            BFCut       ... 1.0000e-11
Integration weight cutoff        WCut        ... 1.0000e-14
Partially contracted basis set               ... off
Rotationally invariant grid construction     ... off
Angular grids for H and He will be reduced by one unit
Diffuse basis detected: some atoms will have their outermost
                        angular grid increased by 1.

Total number of grid points                  ...   151960
Total number of batches                      ...     2389
Average number of points per batch           ...       63
Average number of grid points per atom       ...     5065

--------------------
COSX GRID GENERATION
--------------------

GRIDX 1
-------
General Integration Accuracy     IntAcc      ... 3.816
Radial Grid Type                 RadialGrid  ... OptM3 with GC (2021)
Angular Grid (max. ang.)         AngularGrid ... 1 (Lebedev-50)
Angular grid pruning method      GridPruning ... 4 (adaptive)
Weight generation scheme         WeightScheme... mBecke (2022)
Basis function cutoff            BFCut       ... 1.0000e-11
Integration weight cutoff        WCut        ... 1.0000e-14
Partially contracted basis set               ... on
Rotationally invariant grid construction     ... off
Angular grids for H and He will be reduced by one unit
Diffuse basis detected: some atoms will have their outermost
                        angular grid increased by 1.

Total number of grid points                  ...    19005
Total number of batches                      ...      166
Average number of points per batch           ...      114
Average number of grid points per atom       ...      634
UseSFitting                                  ... on

GRIDX 2
-------
General Integration Accuracy     IntAcc      ... 4.020
Radial Grid Type                 RadialGrid  ... OptM3 with GC (2021)
Angular Grid (max. ang.)         AngularGrid ... 2 (Lebedev-110)
Angular grid pruning method      GridPruning ... 4 (adaptive)
Weight generation scheme         WeightScheme... mBecke (2022)
Basis function cutoff            BFCut       ... 1.0000e-11
Integration weight cutoff        WCut        ... 1.0000e-14
Partially contracted basis set               ... on
Rotationally invariant grid construction     ... off
Angular grids for H and He will be reduced by one unit
Diffuse basis detected: some atoms will have their outermost
                        angular grid increased by 1.

Total number of grid points                  ...    45842
Total number of batches                      ...      375
Average number of points per batch           ...      122
Average number of grid points per atom       ...     1528
UseSFitting                                  ... on

GRIDX 3
-------
General Integration Accuracy     IntAcc      ... 4.338
Radial Grid Type                 RadialGrid  ... OptM3 with GC (2021)
Angular Grid (max. ang.)         AngularGrid ... 3 (Lebedev-194)
Angular grid pruning method      GridPruning ... 4 (adaptive)
Weight generation scheme         WeightScheme... mBecke (2022)
Basis function cutoff            BFCut       ... 1.0000e-11
Integration weight cutoff        WCut        ... 1.0000e-14
Partially contracted basis set               ... on
Rotationally invariant grid construction     ... off
Angular grids for H and He will be reduced by one unit
Diffuse basis detected: some atoms will have their outermost
                        angular grid increased by 1.

Total number of grid points                  ...   100909
Total number of batches                      ...      804
Average number of points per batch           ...      125
Average number of grid points per atom       ...     3364
UseSFitting                                  ... on
Initializing property integral containers    ... done (  0.0 sec)

SHARK setup successfully completed in   4.2 seconds

Maximum memory used throughout the entire STARTUP-calculation: 80.4 MB
[1738807680.795394] [ohm:3087977:0]        ib_iface.c:1059 UCX  ERROR ibv_create_cq(cqe=256) failed: Connection timed out
[1738807680.800327] [ohm:3087964:0]        ib_iface.c:1059 UCX  ERROR ibv_create_cq(cqe=256) failed: Connection timed out
[1738807680.815737] [ohm:3087962:0]        ib_iface.c:1059 UCX  ERROR ibv_create_cq(cqe=256) failed: Connection timed out
[1738807680.816631] [ohm:3087965:0]        ib_iface.c:1059 UCX  ERROR ibv_create_cq(cqe=256) failed: Connection timed out
[1738807680.849332] [ohm:3087968:0]        ib_iface.c:1059 UCX  ERROR ibv_create_cq(cqe=256) failed: Connection timed out
[1738807680.859713] [ohm:3087978:0]        ib_iface.c:1059 UCX  ERROR ibv_create_cq(cqe=256) failed: Connection timed out
[1738807680.860195] [ohm:3087967:0]        ib_iface.c:1059 UCX  ERROR ibv_create_cq(cqe=256) failed: Connection timed out
[1738807680.861443] [ohm:3087963:0]        ib_iface.c:1059 UCX  ERROR ibv_create_cq(cqe=256) failed: Connection timed out
[1738807680.871110] [ohm:3087992:0]        ib_iface.c:1059 UCX  ERROR ibv_create_cq(cqe=256) failed: Connection timed out
[1738807680.871270] [ohm:3087989:0]        ib_iface.c:1059 UCX  ERROR ibv_create_cq(cqe=256) failed: Connection timed out
[1738807680.875242] [ohm:3087972:0]        ib_iface.c:1059 UCX  ERROR ibv_create_cq(cqe=256) failed: Connection timed out
[1738807680.918960] [ohm:3087988:0]        ib_iface.c:1059 UCX  ERROR ibv_create_cq(cqe=256) failed: Connection timed out
[1738807680.936999] [ohm:3088017:0]        ib_iface.c:1059 UCX  ERROR ibv_create_cq(cqe=256) failed: Connection timed out
[1738807680.942873] [ohm:3087985:0]        ib_iface.c:1059 UCX  ERROR ibv_create_cq(cqe=256) failed: Connection timed out
[1738807680.947637] [ohm:3087994:0]        ib_iface.c:1059 UCX  ERROR ibv_create_cq(cqe=256) failed: Connection timed out
[1738807680.959036] [ohm:3088089:0]        ib_iface.c:1059 UCX  ERROR ibv_create_cq(cqe=256) failed: Connection timed out
[1738807680.959171] [ohm:3088094:0]        ib_iface.c:1059 UCX  ERROR ibv_create_cq(cqe=256) failed: Connection timed out
[1738807680.965379] [ohm:3088044:0]        ib_iface.c:1059 UCX  ERROR ibv_create_cq(cqe=256) failed: Connection timed out
[1738807680.966238] [ohm:3087973:0]        ib_iface.c:1059 UCX  ERROR ibv_create_cq(cqe=256) failed: Connection timed out
[1738807680.974904] [ohm:3087984:0]        ib_iface.c:1059 UCX  ERROR ibv_create_cq(cqe=256) failed: Connection timed out
[1738807680.975177] [ohm:3088020:0]        ib_iface.c:1059 UCX  ERROR ibv_create_cq(cqe=256) failed: Connection timed out
[1738807680.979299] [ohm:3087976:0]        ib_iface.c:1059 UCX  ERROR ibv_create_cq(cqe=256) failed: Connection timed out
[1738807680.983884] [ohm:3087980:0]        ib_iface.c:1059 UCX  ERROR ibv_create_cq(cqe=256) failed: Connection timed out
[1738807680.989368] [ohm:3088002:0]        ib_iface.c:1059 UCX  ERROR ibv_create_cq(cqe=256) failed: Connection timed out
[1738807680.991403] [ohm:3088028:0]        ib_iface.c:1059 UCX  ERROR ibv_create_cq(cqe=256) failed: Connection timed out
[1738807681.002616] [ohm:3088068:0]        ib_iface.c:1059 UCX  ERROR ibv_create_cq(cqe=256) failed: Connection timed out
[1738807681.019162] [ohm:3087971:0]        ib_iface.c:1059 UCX  ERROR ibv_create_cq(cqe=256) failed: Connection timed out
[1738807681.026393] [ohm:3088000:0]        ib_iface.c:1059 UCX  ERROR ibv_create_cq(cqe=256) failed: Connection timed out
[1738807681.026418] [ohm:3087969:0]        ib_iface.c:1059 UCX  ERROR ibv_create_cq(cqe=256) failed: Connection timed out
[1738807681.031251] [ohm:3088024:0]        ib_iface.c:1059 UCX  ERROR ibv_create_cq(cqe=256) failed: Connection timed out
[1738807681.032922] [ohm:3088048:0]        ib_iface.c:1059 UCX  ERROR ibv_create_cq(cqe=256) failed: Connection timed out
[1738807681.036623] [ohm:3088074:0]        ib_iface.c:1059 UCX  ERROR ibv_create_cq(cqe=256) failed: Connection timed out
[1738807681.041022] [ohm:3087970:0]        ib_iface.c:1059 UCX  ERROR ibv_create_cq(cqe=256) failed: Connection timed out
[1738807681.042323] [ohm:3088052:0]        ib_iface.c:1059 UCX  ERROR ibv_create_cq(cqe=256) failed: Connection timed out
[1738807681.046396] [ohm:3087981:0]        ib_iface.c:1059 UCX  ERROR ibv_create_cq(cqe=256) failed: Connection timed out
[1738807681.047292] [ohm:3087974:0]        ib_iface.c:1059 UCX  ERROR ibv_create_cq(cqe=256) failed: Connection timed out
[1738807681.048378] [ohm:3088081:0]        ib_iface.c:1059 UCX  ERROR ibv_create_cq(cqe=256) failed: Connection timed out
[1738807681.051219] [ohm:3088015:0]        ib_iface.c:1059 UCX  ERROR ibv_create_cq(cqe=256) failed: Connection timed out
[1738807681.064902] [ohm:3087987:0]        ib_iface.c:1059 UCX  ERROR ibv_create_cq(cqe=256) failed: Connection timed out
[1738807681.072512] [ohm:3088031:0]        ib_iface.c:1059 UCX  ERROR ibv_create_cq(cqe=256) failed: Connection timed out
[1738807681.075740] [ohm:3088105:0]        ib_iface.c:1059 UCX  ERROR ibv_create_cq(cqe=256) failed: Connection timed out
[1738807681.083602] [ohm:3088091:0]        ib_iface.c:1059 UCX  ERROR ibv_create_cq(cqe=256) failed: Connection timed out
[1738807681.088606] [ohm:3088036:0]        ib_iface.c:1059 UCX  ERROR ibv_create_cq(cqe=256) failed: Connection timed out
[1738807681.090128] [ohm:3088054:0]        ib_iface.c:1059 UCX  ERROR ibv_create_cq(cqe=256) failed: Connection timed out
[1738807681.095610] [ohm:3088057:0]        ib_iface.c:1059 UCX  ERROR ibv_create_cq(cqe=256) failed: Connection timed out
[1738807681.095585] [ohm:3088007:0]        ib_iface.c:1059 UCX  ERROR ibv_create_cq(cqe=256) failed: Connection timed out
[1738807681.097791] [ohm:3088099:0]        ib_iface.c:1059 UCX  ERROR ibv_create_cq(cqe=256) failed: Connection timed out
[1738807681.100887] [ohm:3088086:0]        ib_iface.c:1059 UCX  ERROR ibv_create_cq(cqe=256) failed: Connection timed out
[1738807681.104234] [ohm:3088084:0]        ib_iface.c:1059 UCX  ERROR ibv_create_cq(cqe=256) failed: Connection timed out
[1738807681.105546] [ohm:3088061:0]        ib_iface.c:1059 UCX  ERROR ibv_create_cq(cqe=256) failed: Connection timed out
[1738807681.110131] [ohm:3087983:0]        ib_iface.c:1059 UCX  ERROR ibv_create_cq(cqe=256) failed: Connection timed out
[1738807681.112957] [ohm:3088039:0]        ib_iface.c:1059 UCX  ERROR ibv_create_cq(cqe=256) failed: Connection timed out
[1738807681.114451] [ohm:3087986:0]        ib_iface.c:1059 UCX  ERROR ibv_create_cq(cqe=256) failed: Connection timed out
[1738807681.116307] [ohm:3087975:0]        ib_iface.c:1059 UCX  ERROR ibv_create_cq(cqe=256) failed: Connection timed out
[1738807681.122172] [ohm:3088011:0]        ib_iface.c:1059 UCX  ERROR ibv_create_cq(cqe=256) failed: Connection timed out
[1738807681.124057] [ohm:3088095:0]        ib_iface.c:1059 UCX  ERROR ibv_create_cq(cqe=256) failed: Connection timed out
[1738807681.124975] [ohm:3087979:0]        ib_iface.c:1059 UCX  ERROR ibv_create_cq(cqe=256) failed: Connection timed out
[1738807681.125744] [ohm:3088078:0]        ib_iface.c:1059 UCX  ERROR ibv_create_cq(cqe=256) failed: Connection timed out
[1738807681.126854] [ohm:3088073:0]        ib_iface.c:1059 UCX  ERROR ibv_create_cq(cqe=256) failed: Connection timed out
[1738807681.128016] [ohm:3087966:0]        ib_iface.c:1059 UCX  ERROR ibv_create_cq(cqe=256) failed: Connection timed out
[1738807681.129533] [ohm:3088065:0]        ib_iface.c:1059 UCX  ERROR ibv_create_cq(cqe=256) failed: Connection timed out
[1738807681.129626] [ohm:3088046:0]        ib_iface.c:1059 UCX  ERROR ibv_create_cq(cqe=256) failed: Connection timed out
[1738807681.129963] [ohm:3087982:0]        ib_iface.c:1059 UCX  ERROR ibv_create_cq(cqe=256) failed: Connection timed out
[1738807681.129964] [ohm:3088110:0]        ib_iface.c:1059 UCX  ERROR ibv_create_cq(cqe=256) failed: Connection timed out


           ************************************************************
           *        Program running with 64 parallel MPI-processes    *
           *              working on a common directory               *
           ************************************************************
-------------------------------------------------------------------------------
                                 ORCA GUESS
                   Start orbitals & Density for SCF / CASSCF
-------------------------------------------------------------------------------

------------
SCF SETTINGS
------------
Hamiltonian:
 Density Functional     Method          .... DFT(GTOs)
  Functional kind                       .... Exchange-Correlation
  Functional name                       .... wB97M-V exchange-correlation functional
  Functional family                     .... Hybrid MGGA
  Functional refs                              
    [ 0] N. Mardirossian and M. Head-Gordon.,  J. Chem. Phys. 144, 214110 (2016), doi: 10.1063/1.4952647
  Fraction of HF Exchange (short range) .... 0.1500
  Fraction of HF Exchange (long range)  .... 1.0000
  Range separation parameter mu         .... 0.3000
  Functional external parameters        .... 17
    Parameter  0 _cx00      =  8.500000e-01 : u^00 coefficient for exchange
    Parameter  1 _cx01      =  1.007000e+00 : u^01 coefficient for exchange
    Parameter  2 _cx10      =  2.590000e-01 : u^10 coefficient for exchange
    Parameter  3 _css00     =  4.430000e-01 : u^00 coefficient for same-spin correlation
    Parameter  4 _css04     = -1.437000e+00 : u^04 coefficient for same-spin correlation
    Parameter  5 _css10     = -4.535000e+00 : u^10 coefficient for same-spin correlation
    Parameter  6 _css20     = -3.390000e+00 : u^20 coefficient for same-spin correlation
    Parameter  7 _css43     =  4.278000e+00 : u^43 coefficient for same-spin correlation
    Parameter  8 _cos00     =  1.000000e+00 : u^00 coefficient for opposite-spin correlation
    Parameter  9 _cos10     =  1.358000e+00 : u^10 coefficient for opposite-spin correlation
    Parameter 10 _cos20     =  2.924000e+00 : u^20 coefficient for opposite-spin correlation
    Parameter 11 _cos21     = -8.812000e+00 : u^21 coefficient for opposite-spin correlation
    Parameter 12 _cos60     = -1.390000e+00 : u^60 coefficient for opposite-spin correlation
    Parameter 13 _cos61     =  9.142000e+00 : u^61 coefficient for opposite-spin correlation
    Parameter 14 _alpha     =  1.000000e+00 : fraction of HF exchange
    Parameter 15 _beta      = -8.500000e-01 : fraction of short-range exchange
    Parameter 16 _omega     =  3.000000e-01 : range-separation constant
 Long-range corrected/Screened/Range-Separated Hybrid DFT is turned on
   Amount of maximum screened exact exchange              ....  0.850000
   Range separation parameter mu (erf(mu*r12)/r12)        ....  0.300000
 RI-approximation to the Coulomb term is turned on
   Number of AuxJ basis functions       .... 1014
   RIJ-COSX (HFX calculated with COS-X)).... on


General Settings:
 Integral files         IntName         .... orca
 Hartree-Fock type      HFTyp           .... UHF
 Total Charge           Charge          ....    0
 Multiplicity           Mult            ....    3
 Number of Electrons    NEL             ....  132
 Basis Dimension        Dim             ....  882
 Nuclear Repulsion      ENuc            ....   1459.9644739787 Eh

Convergence Acceleration:
 AO-DIIS                CNVDIIS         .... on
   Start iteration      DIISMaxIt       ....    12
   Startup error        DIISStart       ....  0.200000
   # of expansion vecs  DIISMaxEq       ....     5
   Bias factor          DIISBfac        ....   1.050
   Max. coefficient     DIISMaxC        ....  10.000
 MO-DIIS                CNVKDIIS        .... off
 Trust-Rad. Augm. Hess. CNVTRAH         .... auto
   Auto Start mean grad. ratio tolernc. ....  1.125000
   Auto Start start iteration           ....    50
   Auto Start num. interpolation iter.  ....    10
   Max. Number of Micro iterations      ....    24
   Max. Number of Macro iterations      .... Maxiter - #DIIS iter
   Number of Davidson start vectors     ....     2
   Converg. threshold    (grad. norm)   ....   1.000e-05
   Grad. Scal. Fac. for Micro threshold ....   0.100
   Minimum threshold for Micro iter.    ....   1.000e-02
   NR start threshold (gradient norm)   ....   1.000e-04
   Initial trust radius                 ....   0.400
   Minimum AH scaling param. (alpha)    ....   1.000
   Maximum AH scaling param. (alpha)    .... 1000.000
   Quad. conv. algorithm                .... NR
   White noise on init. David. guess    .... on
   Maximum white noise                  ....   0.010
   Pseudo random numbers                .... off
   Inactive MOs                         .... canonical
   Orbital update algorithm             .... Taylor
   Preconditioner                       .... Diag
   Full preconditioner red. dimension   ....   250
 SOSCF                  CNVSOSCF        .... on
   Start iteration      SOSCFMaxIt      ....   150
   Startup grad/error   SOSCFStart      ....  0.003300
   Hessian update       SOSCFHessUp     .... L-BFGS
 Level Shifting         CNVShift        .... on
   Level shift para.    LevelShift      ....    0.2500
   Turn off err/grad.   ShiftErr        ....    0.0010
 Zerner damping         CNVZerner       .... off
 Static damping         CNVDamp         .... on
   Fraction old density DampFac         ....    0.7000
   Max. Damping (<1)    DampMax         ....    0.9800
   Min. Damping (>=0)   DampMin         ....    0.0000
   Turn off err/grad.   DampErr         ....    0.1000

SCF Procedure:
 Maximum # iterations   MaxIter         ....   125
 SCF integral mode      SCFMode         .... Direct
   Integral package                     .... SHARK and LIBINT hybrid scheme
 Reset frequency        DirectResetFreq ....    20
 Integral Threshold     Thresh          ....  1.000e-12 Eh
 Primitive CutOff       TCut            ....  1.000e-13 Eh

Convergence Tolerance:
 Convergence Check Mode ConvCheckMode   .... Total+1el-Energy
 Convergence forced     ConvForced      .... 1
 Energy Change          TolE            ....  1.000e-08 Eh
 1-El. energy change                    ....  1.000e-05 Eh
 Orbital Gradient       TolG            ....  1.000e-05
 Orbital Rotation angle TolX            ....  1.000e-05
 DIIS Error             TolErr          ....  5.000e-07

------------------------------
INITIAL GUESS: MODEL POTENTIAL
------------------------------
Loading Hartree-Fock densities                     ... done
Calculating cut-offs                               ... done
Initializing the effective Hamiltonian             ... done
Setting up the integral package (SHARK)            ... done
Starting the Coulomb interaction                   ... done (   0.1 sec)
Making the grid                                    ... done (   0.2 sec)
Mapping shells                                     ... done
Starting the XC term evaluation                    ... done (   0.1 sec)
  promolecular density results
     # of electrons  =    132.003777144
     EX              =   -113.551252899
     EC              =     -4.494530898
     EX+EC           =   -118.045783797
Transforming the Hamiltonian                       ... done (   0.1 sec)
Diagonalizing the Hamiltonian                      ... done (   0.1 sec)
Back transforming the eigenvectors                 ... done (   0.1 sec)
Now organizing SCF variables                       ... done
                      ------------------
                      INITIAL GUESS DONE (   1.1 sec)
                      ------------------
             **** ENERGY FILE WAS UPDATED (orca.en.tmp) ****
Finished Guess after   3.5 sec
Maximum memory used throughout the entire GUESS-calculation: 72.7 MB
[1738807684.900233] [ohm:3088315:0]        ib_iface.c:1059 UCX  ERROR ibv_create_cq(cqe=256) failed: Connection timed out
[1738807684.905987] [ohm:3088295:0]        ib_iface.c:1059 UCX  ERROR ibv_create_cq(cqe=256) failed: Connection timed out
[1738807684.909546] [ohm:3088296:0]        ib_iface.c:1059 UCX  ERROR ibv_create_cq(cqe=256) failed: Connection timed out
[1738807684.918327] [ohm:3088294:0]        ib_iface.c:1059 UCX  ERROR ibv_create_cq(cqe=256) failed: Connection timed out
[1738807684.936299] [ohm:3088302:0]        ib_iface.c:1059 UCX  ERROR ibv_create_cq(cqe=256) failed: Connection timed out
[1738807684.940968] [ohm:3088293:0]        ib_iface.c:1059 UCX  ERROR ibv_create_cq(cqe=256) failed: Connection timed out
[1738807684.962779] [ohm:3088300:0]        ib_iface.c:1059 UCX  ERROR ibv_create_cq(cqe=256) failed: Connection timed out
[1738807684.966270] [ohm:3088297:0]        ib_iface.c:1059 UCX  ERROR ibv_create_cq(cqe=256) failed: Connection timed out
[1738807684.977177] [ohm:3088312:0]        ib_iface.c:1059 UCX  ERROR ibv_create_cq(cqe=256) failed: Connection timed out
[1738807684.984116] [ohm:3088314:0]        ib_iface.c:1059 UCX  ERROR ibv_create_cq(cqe=256) failed: Connection timed out
[1738807684.985505] [ohm:3088318:0]        ib_iface.c:1059 UCX  ERROR ibv_create_cq(cqe=256) failed: Connection timed out
[1738807684.986166] [ohm:3088301:0]        ib_iface.c:1059 UCX  ERROR ibv_create_cq(cqe=256) failed: Connection timed out
[1738807684.988037] [ohm:3088317:0]        ib_iface.c:1059 UCX  ERROR ibv_create_cq(cqe=256) failed: Connection timed out
[1738807684.990419] [ohm:3088303:0]        ib_iface.c:1059 UCX  ERROR ibv_create_cq(cqe=256) failed: Connection timed out
[1738807684.990795] [ohm:3088316:0]        ib_iface.c:1059 UCX  ERROR ibv_create_cq(cqe=256) failed: Connection timed out
[1738807685.011447] [ohm:3088321:0]        ib_iface.c:1059 UCX  ERROR ibv_create_cq(cqe=256) failed: Connection timed out
[1738807685.030547] [ohm:3088347:0]        ib_iface.c:1059 UCX  ERROR ibv_create_cq(cqe=256) failed: Connection timed out
[1738807685.030796] [ohm:3088325:0]        ib_iface.c:1059 UCX  ERROR ibv_create_cq(cqe=256) failed: Connection timed out
[1738807685.037117] [ohm:3088338:0]        ib_iface.c:1059 UCX  ERROR ibv_create_cq(cqe=256) failed: Connection timed out
[1738807685.045814] [ohm:3088313:0]        ib_iface.c:1059 UCX  ERROR ibv_create_cq(cqe=256) failed: Connection timed out
[1738807685.046564] [ohm:3088319:0]        ib_iface.c:1059 UCX  ERROR ibv_create_cq(cqe=256) failed: Connection timed out
[1738807685.055082] [ohm:3088348:0]        ib_iface.c:1059 UCX  ERROR ibv_create_cq(cqe=256) failed: Connection timed out
[1738807685.075918] [ohm:3088327:0]        ib_iface.c:1059 UCX  ERROR ibv_create_cq(cqe=256) failed: Connection timed out
[1738807685.075996] [ohm:3088322:0]        ib_iface.c:1059 UCX  ERROR ibv_create_cq(cqe=256) failed: Connection timed out
[1738807685.083287] [ohm:3088362:0]        ib_iface.c:1059 UCX  ERROR ibv_create_cq(cqe=256) failed: Connection timed out
[1738807685.095414] [ohm:3088373:0]        ib_iface.c:1059 UCX  ERROR ibv_create_cq(cqe=256) failed: Connection timed out
[1738807685.104169] [ohm:3088342:0]        ib_iface.c:1059 UCX  ERROR ibv_create_cq(cqe=256) failed: Connection timed out
[1738807685.115156] [ohm:3088395:0]        ib_iface.c:1059 UCX  ERROR ibv_create_cq(cqe=256) failed: Connection timed out
[1738807685.115245] [ohm:3088346:0]        ib_iface.c:1059 UCX  ERROR ibv_create_cq(cqe=256) failed: Connection timed out
[1738807685.115847] [ohm:3088356:0]        ib_iface.c:1059 UCX  ERROR ibv_create_cq(cqe=256) failed: Connection timed out
[1738807685.117888] [ohm:3088332:0]        ib_iface.c:1059 UCX  ERROR ibv_create_cq(cqe=256) failed: Connection timed out
[1738807685.125886] [ohm:3088298:0]        ib_iface.c:1059 UCX  ERROR ibv_create_cq(cqe=256) failed: Connection timed out
[1738807685.129683] [ohm:3088341:0]        ib_iface.c:1059 UCX  ERROR ibv_create_cq(cqe=256) failed: Connection timed out
[1738807685.129849] [ohm:3088333:0]        ib_iface.c:1059 UCX  ERROR ibv_create_cq(cqe=256) failed: Connection timed out
[1738807685.133148] [ohm:3088354:0]        ib_iface.c:1059 UCX  ERROR ibv_create_cq(cqe=256) failed: Connection timed out
[1738807685.134664] [ohm:3088345:0]        ib_iface.c:1059 UCX  ERROR ibv_create_cq(cqe=256) failed: Connection timed out
[1738807685.134795] [ohm:3088299:0]        ib_iface.c:1059 UCX  ERROR ibv_create_cq(cqe=256) failed: Connection timed out
[1738807685.134797] [ohm:3088366:0]        ib_iface.c:1059 UCX  ERROR ibv_create_cq(cqe=256) failed: Connection timed out
[1738807685.136444] [ohm:3088368:0]        ib_iface.c:1059 UCX  ERROR ibv_create_cq(cqe=256) failed: Connection timed out
[1738807685.139544] [ohm:3088390:0]        ib_iface.c:1059 UCX  ERROR ibv_create_cq(cqe=256) failed: Connection timed out
[1738807685.143392] [ohm:3088394:0]        ib_iface.c:1059 UCX  ERROR ibv_create_cq(cqe=256) failed: Connection timed out
[1738807685.146356] [ohm:3088417:0]        ib_iface.c:1059 UCX  ERROR ibv_create_cq(cqe=256) failed: Connection timed out
[1738807685.160682] [ohm:3088420:0]        ib_iface.c:1059 UCX  ERROR ibv_create_cq(cqe=256) failed: Connection timed out
[1738807685.166633] [ohm:3088429:0]        ib_iface.c:1059 UCX  ERROR ibv_create_cq(cqe=256) failed: Connection timed out
[1738807685.169839] [ohm:3088436:0]        ib_iface.c:1059 UCX  ERROR ibv_create_cq(cqe=256) failed: Connection timed out
[1738807685.174078] [ohm:3088403:0]        ib_iface.c:1059 UCX  ERROR ibv_create_cq(cqe=256) failed: Connection timed out
[1738807685.181576] [ohm:3088367:0]        ib_iface.c:1059 UCX  ERROR ibv_create_cq(cqe=256) failed: Connection timed out
[1738807685.185656] [ohm:3088349:0]        ib_iface.c:1059 UCX  ERROR ibv_create_cq(cqe=256) failed: Connection timed out
[1738807685.190487] [ohm:3088323:0]        ib_iface.c:1059 UCX  ERROR ibv_create_cq(cqe=256) failed: Connection timed out
[1738807685.190623] [ohm:3088350:0]        ib_iface.c:1059 UCX  ERROR ibv_create_cq(cqe=256) failed: Connection timed out
[1738807685.196422] [ohm:3088371:0]        ib_iface.c:1059 UCX  ERROR ibv_create_cq(cqe=256) failed: Connection timed out
[1738807685.199877] [ohm:3088386:0]        ib_iface.c:1059 UCX  ERROR ibv_create_cq(cqe=256) failed: Connection timed out
[1738807685.201489] [ohm:3088432:0]        ib_iface.c:1059 UCX  ERROR ibv_create_cq(cqe=256) failed: Connection timed out
[1738807685.206085] [ohm:3088411:0]        ib_iface.c:1059 UCX  ERROR ibv_create_cq(cqe=256) failed: Connection timed out
[1738807685.211419] [ohm:3088422:0]        ib_iface.c:1059 UCX  ERROR ibv_create_cq(cqe=256) failed: Connection timed out
[1738807685.217058] [ohm:3088381:0]        ib_iface.c:1059 UCX  ERROR ibv_create_cq(cqe=256) failed: Connection timed out
[1738807685.218417] [ohm:3088427:0]        ib_iface.c:1059 UCX  ERROR ibv_create_cq(cqe=256) failed: Connection timed out
[1738807685.220603] [ohm:3088408:0]        ib_iface.c:1059 UCX  ERROR ibv_create_cq(cqe=256) failed: Connection timed out
[1738807685.220986] [ohm:3088400:0]        ib_iface.c:1059 UCX  ERROR ibv_create_cq(cqe=256) failed: Connection timed out
[1738807685.223691] [ohm:3088320:0]        ib_iface.c:1059 UCX  ERROR ibv_create_cq(cqe=256) failed: Connection timed out
[1738807685.224757] [ohm:3088438:0]        ib_iface.c:1059 UCX  ERROR ibv_create_cq(cqe=256) failed: Connection timed out
[1738807685.224757] [ohm:3088444:0]        ib_iface.c:1059 UCX  ERROR ibv_create_cq(cqe=256) failed: Connection timed out
[1738807685.224918] [ohm:3088415:0]        ib_iface.c:1059 UCX  ERROR ibv_create_cq(cqe=256) failed: Connection timed out
[1738807685.225442] [ohm:3088378:0]        ib_iface.c:1059 UCX  ERROR ibv_create_cq(cqe=256) failed: Connection timed out


           ************************************************************
           *        Program running with 64 parallel MPI-processes    *
           *              working on a common directory               *
           ************************************************************

-------------------------------------------------------------------------------------------
                                      ORCA LEAN-SCF
                              memory conserving SCF solver
-------------------------------------------------------------------------------------------

----------------------------------------D-I-I-S--------------------------------------------
Iteration    Energy (Eh)           Delta-E    RMSDP     MaxDP     DIISErr   Damp  Time(sec)
-------------------------------------------------------------------------------------------
               ***  Starting incremental Fock matrix formation  ***
    1    -908.1394161263124261     0.00e+00  2.02e-03  4.22e-01  1.46e-01  0.700   8.3
    2    -908.4074390811315425    -2.68e-01  1.58e-03  3.14e-01  6.91e-02  0.700   6.7
                               ***Turning on AO-DIIS***
    3    -908.5256903238819177    -1.18e-01  1.13e-03  2.37e-01  2.95e-02  0.700   5.9
    4    -908.5985430233258739    -7.29e-02  2.58e-03  4.96e-01  1.85e-02  0.000   5.8
    5    -908.7625290409869194    -1.64e-01  3.52e-04  9.16e-02  4.67e-03  0.000   5.9
                              *** Initializing SOSCF ***
---------------------------------------S-O-S-C-F--------------------------------------
Iteration    Energy (Eh)           Delta-E    RMSDP     MaxDP     MaxGrad    Time(sec)
--------------------------------------------------------------------------------------
    6    -908.7639706169657074    -1.44e-03  1.61e-04  4.41e-02  3.06e-03     6.7
               *** Restarting incremental Fock matrix formation ***
    7    -908.7646424940930956    -6.72e-04  2.71e-04  2.29e-02  5.54e-03     7.9
    8    -908.7651026045018625    -4.60e-04  2.72e-04  6.25e-02  3.11e-03     7.0
    9    -908.7652692686110640    -1.67e-04  1.48e-04  1.26e-02  9.90e-04     7.1
   10    -908.7653516179016151    -8.23e-05  4.68e-05  1.37e-02  4.81e-04     6.9
   11    -908.7653641297856666    -1.25e-05  9.56e-06  1.53e-03  1.21e-04     6.7
   12    -908.7653662918087321    -2.16e-06  6.21e-06  1.04e-03  1.55e-04     6.5
   13    -908.7653674426787802    -1.15e-06  6.08e-06  1.12e-03  3.67e-05     6.4
   14    -908.7653676250029093    -1.82e-07  1.92e-06  5.36e-04  2.73e-05     6.4
   15    -908.7653676633653959    -3.84e-08  1.54e-06  2.56e-04  1.48e-05     6.1
   16    -908.7653676974809969    -3.41e-08  1.51e-06  3.95e-04  5.20e-06     6.0
   17    -908.7653677458470156    -4.84e-08  1.28e-06  2.68e-04  2.94e-06     5.8
   18    -908.7653676918662313     5.40e-08  2.14e-06  3.85e-04  8.02e-07     5.7
                  *** Gradient check signals convergence ***

               *****************************************************
               *                     SUCCESS                       *
               *           SCF CONVERGED AFTER  18 CYCLES          *
               *****************************************************

Recomputing exchange energy using gridx3       ... done (    8.102 sec)
Old exchange energy                            :    -35.045984804 Eh
New exchange energy                            :    -35.045972652 Eh
Exchange energy change after final integration :      0.000012153 Eh
Total energy after final integration           :   -908.765355539 Eh
             **** ENERGY FILE WAS UPDATED (orca.en.tmp) ****

----------------
TOTAL SCF ENERGY
----------------

Total Energy       :       -908.76535553934593 Eh          -24728.76251 eV

Components:
Nuclear Repulsion  :       1459.96447397873180 Eh           39727.65305 eV
Electronic Energy  :      -2368.72984167059803 Eh          -64456.41589 eV
One Electron Energy:      -4137.33955011944090 Eh         -112582.73275 eV
Two Electron Energy:       1768.60970844884287 Eh           48126.31686 eV

Virial components:
Potential Energy   :      -1814.56374356821561 Eh          -49376.78973 eV
Kinetic Energy     :        905.79838802886979 Eh           24648.02722 eV
Virial Ratio       :          2.00327552747906

DFT components:
N(Alpha)           :       67.000091827632 electrons
N(Beta)            :       65.000104262508 electrons
N(Total)           :      132.000196090141 electrons
E(XC)              :      -86.275784100613 Eh       

---------------
SCF CONVERGENCE
---------------

  Last Energy change         ...   -5.3981e-08  Tolerance :   1.0000e-08
  Last MAX-Density change    ...    3.8475e-04  Tolerance :   1.0000e-07
  Last RMS-Density change    ...    2.1420e-06  Tolerance :   5.0000e-09
  Last DIIS Error            ...    3.0619e-03  Tolerance :   5.0000e-07
  Last Orbital Gradient      ...    8.0203e-07  Tolerance :   1.0000e-05
  Last Orbital Rotation      ...    6.9555e-06  Tolerance :   1.0000e-05


----------------------
UHF SPIN CONTAMINATION
----------------------

Warning: in a DFT calculation there is little theoretical justification to 
         calculate <S**2> as in Hartree-Fock theory. We will do it anyways
         but you should keep in mind that the values have only limited relevance

Expectation value of <S**2>     :     2.014102
Ideal value S*(S+1) for S=1.0   :     2.000000
Deviation                       :     0.014102

----------------
ORBITAL ENERGIES
----------------
                 SPIN UP ORBITALS
  NO   OCC          E(Eh)            E(eV) 
   0   1.0000     -19.332615      -526.0672 
   1   1.0000     -19.330643      -526.0135 
   2   1.0000     -19.319884      -525.7208 
   3   1.0000     -19.314197      -525.5660 
   4   1.0000     -14.563767      -396.3002 
   5   1.0000     -14.559043      -396.1717 
   6   1.0000     -14.558025      -396.1440 
   7   1.0000     -14.556822      -396.1113 
   8   1.0000     -10.504045      -285.8296 
   9   1.0000     -10.500531      -285.7340 
  10   1.0000     -10.478594      -285.1370 
  11   1.0000     -10.477826      -285.1161 
  12   1.0000     -10.446397      -284.2609 
  13   1.0000     -10.444218      -284.2016 
  14   1.0000     -10.419609      -283.5320 
  15   1.0000     -10.412938      -283.3504 
  16   1.0000     -10.373524      -282.2779 
  17   1.0000     -10.373155      -282.2679 
  18   1.0000      -1.220865       -33.2214 
  19   1.0000      -1.214758       -33.0553 
  20   1.0000      -1.197292       -32.5800 
  21   1.0000      -1.194010       -32.4907 
  22   1.0000      -1.117577       -30.4108 
  23   1.0000      -1.095244       -29.8031 
  24   1.0000      -1.064843       -28.9758 
  25   1.0000      -1.054556       -28.6959 
  26   1.0000      -0.978598       -26.6290 
  27   1.0000      -0.948864       -25.8199 
  28   1.0000      -0.888146       -24.1677 
  29   1.0000      -0.836087       -22.7511 
  30   1.0000      -0.827984       -22.5306 
  31   1.0000      -0.801572       -21.8119 
  32   1.0000      -0.784866       -21.3573 
  33   1.0000      -0.777471       -21.1561 
  34   1.0000      -0.698319       -19.0022 
  35   1.0000      -0.693602       -18.8739 
  36   1.0000      -0.687537       -18.7088 
  37   1.0000      -0.662932       -18.0393 
  38   1.0000      -0.652765       -17.7626 
  39   1.0000      -0.646435       -17.5904 
  40   1.0000      -0.616752       -16.7827 
  41   1.0000      -0.602732       -16.4012 
  42   1.0000      -0.588342       -16.0096 
  43   1.0000      -0.582224       -15.8431 
  44   1.0000      -0.580665       -15.8007 
  45   1.0000      -0.574652       -15.6371 
  46   1.0000      -0.565566       -15.3898 
  47   1.0000      -0.559578       -15.2269 
  48   1.0000      -0.556924       -15.1547 
  49   1.0000      -0.551030       -14.9943 
  50   1.0000      -0.546680       -14.8759 
  51   1.0000      -0.541196       -14.7267 
  52   1.0000      -0.532565       -14.4918 
  53   1.0000      -0.524814       -14.2809 
  54   1.0000      -0.512814       -13.9544 
  55   1.0000      -0.506698       -13.7879 
  56   1.0000      -0.486655       -13.2425 
  57   1.0000      -0.419782       -11.4229 
  58   1.0000      -0.415705       -11.3119 
  59   1.0000      -0.408079       -11.1044 
  60   1.0000      -0.405418       -11.0320 
  61   1.0000      -0.396141       -10.7796 
  62   1.0000      -0.391805       -10.6616 
  63   1.0000      -0.387217       -10.5367 
  64   1.0000      -0.382986       -10.4216 
  65   1.0000      -0.353230        -9.6119 
  66   1.0000      -0.315955        -8.5976 
  67   0.0000       0.005802         0.1579 
  68   0.0000       0.028458         0.7744 
  69   0.0000       0.030588         0.8323 
  70   0.0000       0.039187         1.0663 
  71   0.0000       0.056813         1.5460 
  72   0.0000       0.057170         1.5557 
  73   0.0000       0.059179         1.6103 
  74   0.0000       0.062788         1.7085 
  75   0.0000       0.067788         1.8446 
  76   0.0000       0.072854         1.9825 
  77   0.0000       0.086078         2.3423 

                 SPIN DOWN ORBITALS
  NO   OCC          E(Eh)            E(eV) 
   0   1.0000     -19.328529      -525.9560 
   1   1.0000     -19.326096      -525.8898 
   2   1.0000     -19.319649      -525.7144 
   3   1.0000     -19.314069      -525.5625 
   4   1.0000     -14.563190      -396.2846 
   5   1.0000     -14.558724      -396.1630 
   6   1.0000     -14.557637      -396.1335 
   7   1.0000     -14.556576      -396.1046 
   8   1.0000     -10.504056      -285.8299 
   9   1.0000     -10.500548      -285.7344 
  10   1.0000     -10.479563      -285.1634 
  11   1.0000     -10.478882      -285.1449 
  12   1.0000     -10.446312      -284.2586 
  13   1.0000     -10.443965      -284.1947 
  14   1.0000     -10.407856      -283.2122 
  15   1.0000     -10.400944      -283.0241 
  16   1.0000     -10.374129      -282.2944 
  17   1.0000     -10.373711      -282.2830 
  18   1.0000      -1.219176       -33.1755 
  19   1.0000      -1.212843       -33.0031 
  20   1.0000      -1.192407       -32.4470 
  21   1.0000      -1.189032       -32.3552 
  22   1.0000      -1.115146       -30.3447 
  23   1.0000      -1.093194       -29.7473 
  24   1.0000      -1.063189       -28.9309 
  25   1.0000      -1.053168       -28.6582 
  26   1.0000      -0.963960       -26.2307 
  27   1.0000      -0.932105       -25.3639 
  28   1.0000      -0.883478       -24.0407 
  29   1.0000      -0.831166       -22.6172 
  30   1.0000      -0.819131       -22.2897 
  31   1.0000      -0.796176       -21.6651 
  32   1.0000      -0.783489       -21.3198 
  33   1.0000      -0.775911       -21.1136 
  34   1.0000      -0.692435       -18.8421 
  35   1.0000      -0.686426       -18.6786 
  36   1.0000      -0.680886       -18.5278 
  37   1.0000      -0.654764       -17.8170 
  38   1.0000      -0.644443       -17.5362 
  39   1.0000      -0.642012       -17.4700 
  40   1.0000      -0.613952       -16.7065 
  41   1.0000      -0.598405       -16.2834 
  42   1.0000      -0.582152       -15.8412 
  43   1.0000      -0.574685       -15.6380 
  44   1.0000      -0.571700       -15.5567 
  45   1.0000      -0.565847       -15.3975 
  46   1.0000      -0.560537       -15.2530 
  47   1.0000      -0.553580       -15.0637 
  48   1.0000      -0.553422       -15.0594 
  49   1.0000      -0.541207       -14.7270 
  50   1.0000      -0.539101       -14.6697 
  51   1.0000      -0.534389       -14.5415 
  52   1.0000      -0.525691       -14.3048 
  53   1.0000      -0.514627       -14.0037 
  54   1.0000      -0.503815       -13.7095 
  55   1.0000      -0.500271       -13.6131 
  56   1.0000      -0.481053       -13.0901 
  57   1.0000      -0.416067       -11.3218 
  58   1.0000      -0.412350       -11.2206 
  59   1.0000      -0.402624       -10.9559 
  60   1.0000      -0.392752       -10.6873 
  61   1.0000      -0.386955       -10.5296 
  62   1.0000      -0.384647       -10.4668 
  63   1.0000      -0.382285       -10.4025 
  64   1.0000      -0.374289       -10.1849 
  65   0.0000      -0.072151        -1.9633 
  66   0.0000      -0.027112        -0.7378 
  67   0.0000       0.005495         0.1495 
  68   0.0000       0.028490         0.7753 
  69   0.0000       0.030353         0.8260 
  70   0.0000       0.039214         1.0671 
  71   0.0000       0.057061         1.5527 
  72   0.0000       0.058608         1.5948 
  73   0.0000       0.060954         1.6587 
  74   0.0000       0.064678         1.7600 
  75   0.0000       0.068022         1.8510 
*Only the first 10 virtual orbitals were printed.

                    ********************************
                    * MULLIKEN POPULATION ANALYSIS *
                    ********************************

--------------------------------------------
MULLIKEN ATOMIC CHARGES AND SPIN POPULATIONS
--------------------------------------------
   0 O :   -0.672578    0.163837
   1 O :   -0.667569    0.147774
   2 O :   -0.658243    0.004966
   3 O :   -0.640915    0.008619
   4 N :   -0.288541    0.014128
   5 N :   -0.299057    0.024197
   6 N :    0.070078    0.021897
   7 N :    0.042439    0.013728
   8 C :   -0.161615    0.430206
   9 C :    0.126540    0.509908
  10 C :    0.240815    0.134873
  11 C :    0.772659    0.059574
  12 C :   -1.369058    0.005553
  13 C :   -1.367429    0.045290
  14 C :    0.756855    0.196859
  15 C :    0.268187    0.133125
  16 C :    0.420341   -0.010951
  17 C :    0.342129   -0.002794
  18 H :    0.632989    0.003310
  19 H :    0.467822    0.008082
  20 H :    0.307386    0.004742
  21 H :    0.280328    0.020071
  22 H :    0.327508    0.024460
  23 H :    0.327477    0.024970
  24 H :    0.218786    0.011811
  25 H :    0.347750    0.005660
  26 H :    0.051803   -0.001512
  27 H :    0.074726   -0.000801
  28 H :    0.014950   -0.001823
  29 H :    0.033435    0.000241
Sum of atomic charges         :   -0.0000000
[...]
[1738807956.419677] [ohm:3089516:0]        ib_iface.c:1059 UCX  ERROR ibv_create_cq(cqe=256) failed: Connection timed out
[1738807956.421026] [ohm:3089503:0]        ib_iface.c:1059 UCX  ERROR ibv_create_cq(cqe=256) failed: Connection timed out
[1738807956.422097] [ohm:3089536:0]        ib_iface.c:1059 UCX  ERROR ibv_create_cq(cqe=256) failed: Connection timed out
[1738807956.422403] [ohm:3089412:0]        ib_iface.c:1059 UCX  ERROR ibv_create_cq(cqe=256) failed: Connection timed out
[1738807956.427159] [ohm:3089548:0]        ib_iface.c:1059 UCX  ERROR ibv_create_cq(cqe=256) failed: Connection timed out
[1738807956.428028] [ohm:3089497:0]        ib_iface.c:1059 UCX  ERROR ibv_create_cq(cqe=256) failed: Connection timed out
[1738807956.428003] [ohm:3089415:0]        ib_iface.c:1059 UCX  ERROR ibv_create_cq(cqe=256) failed: Connection timed out
[1738807956.428256] [ohm:3089433:0]        ib_iface.c:1059 UCX  ERROR ibv_create_cq(cqe=256) failed: Connection timed out
[1738807956.428960] [ohm:3089509:0]        ib_iface.c:1059 UCX  ERROR ibv_create_cq(cqe=256) failed: Connection timed out
[1738807956.429052] [ohm:3089506:0]        ib_iface.c:1059 UCX  ERROR ibv_create_cq(cqe=256) failed: Connection timed out


           ************************************************************
           *        Program running with 64 parallel MPI-processes    *
           *              working on a common directory               *
           ************************************************************

------------------------------------------------------------------------------
                              ORCA PROPERTY CALCULATIONS
------------------------------------------------------------------------------

GBWName                                 ... orca.gbw
Number of atoms                         ...     30
Number of basis functions               ...    882
Max core memory                         ...   1024 MB

Electric properties:
Dipole moment                           ... YES
Quadrupole moment                       ...  NO
Static polarizability (Dipole/Dipole)   ...  NO
Static polarizability (Dipole/Quad.)    ...  NO
Static polarizability (Quad./Quad.)     ...  NO
Static polarizability (Velocity)        ...  NO

Atomic electric properties:
Dipole moment                           ...  NO
Quadrupole moment                       ...  NO
Static polarizability                   ...  NO

Choice of electric origin               ... Center of mass
Position of electric origin             ...    -0.004519    -0.062659    -0.030020

General magnetic properties:
Magnetizability                         ...  NO

EPR properties:
g-Tensor (aka g-matrix)                 ...  NO
Zero-Field splitting spin-orbit         ...  NO
Zero-field splitting spin-spin          ...  NO
Hyperfine couplings                     ...  NO (   0 nuclei)
Quadrupole couplings                    ...  NO (   0 nuclei)
Contact density                         ...  NO (   0 nuclei)

NMR properties:
Chemical shifts                         ...  NO (   0 nuclei)
Spin-rotation constants                 ...  NO (   0 nuclei)
Spin-spin couplings                     ...  NO (   0 nuclei,    0 pairs)

Choice of magnetic origin               ... GIAO
Position of magnetic origin             ...     0.000000     0.000000     0.000000

Properties with geometric perturbations:
SCF Hessian                             ...  NO
IR spectrum                             ...  NO
VCD spectrum                            ...  NO
X-ray spectroscopy properties:
SCF XES/XAS/RIXS spectra                ...  NO


-------------
DIPOLE MOMENT
-------------

Method             : SCF
Type of density    : Electron Density
Multiplicity       :   3
Irrep              :   0
Energy             :  -908.7653555393459328 Eh
Relativity type    : 
Basis              : AO
                                X                 Y                 Z
Electronic contribution:     -2.462685723     -10.212137061      -7.337971088
Nuclear contribution   :      2.262196074      11.767471937      10.101380387
                        -----------------------------------------
Total Dipole Moment    :     -0.200489649       1.555334875       2.763409299
                        -----------------------------------------
Magnitude (a.u.)       :      3.177372126
Magnitude (Debye)      :      8.076238115



--------------------
Rotational spectrum 
--------------------
 
Rotational constants in cm-1:             0.019318             0.015536             0.012652 
Rotational constants in MHz :           579.140409           465.766685           379.307869 

Dipole components along the rotational axes: 
x,y,z [a.u.] :     0.583887    -1.626130     2.666547 
x,y,z [Debye]:     1.484122    -4.133294     6.777823 

 

-------------
DIPOLE MOMENT
-------------

Method             : TDA/CIS
Type of density    : Electron Density
Level              : Relaxed density
State              :   2
Multiplicity       :   3
Irrep              :   0
Energy             :     0.0000000000000000 Eh
Relativity type    : 
Basis              : AO
                                X                 Y                 Z
Electronic contribution:     -2.505365012     -10.160042657      -7.214659722
Nuclear contribution   :      2.262196074      11.767471937      10.101380387
                        -----------------------------------------
Total Dipole Moment    :     -0.243168937       1.607429280       2.886720666
                        -----------------------------------------
Magnitude (a.u.)       :      3.313022219
Magnitude (Debye)      :      8.421033250



--------------------
Rotational spectrum 
--------------------
 
Rotational constants in cm-1:             0.019318             0.015536             0.012652 
Rotational constants in MHz :           579.140409           465.766685           379.307869 

Dipole components along the rotational axes: 
x,y,z [a.u.] :     0.572598    -1.693385     2.789389 
x,y,z [Debye]:     1.455430    -4.304243     7.090064 

 

Dipole moment calculation done in   0.2 sec 

Maximum memory used throughout the entire PROP-calculation: 81.9 MB
[1738807958.800131] [ohm:3089737:0]        ib_iface.c:1059 UCX  ERROR ibv_create_cq(cqe=256) failed: Connection timed out
[1738807958.806657] [ohm:3089759:0]        ib_iface.c:1059 UCX  ERROR ibv_create_cq(cqe=256) failed: Connection timed out
[1738807958.808725] [ohm:3089736:0]        ib_iface.c:1059 UCX  ERROR ibv_create_cq(cqe=256) failed: Connection timed out
[1738807958.813601] [ohm:3089739:0]        ib_iface.c:1059 UCX  ERROR ibv_create_cq(cqe=256) failed: Connection timed out
[1738807958.839913] [ohm:3089738:0]        ib_iface.c:1059 UCX  ERROR ibv_create_cq(cqe=256) failed: Connection timed out
[1738807958.850794] [ohm:3089741:0]        ib_iface.c:1059 UCX  ERROR ibv_create_cq(cqe=256) failed: Connection timed out
[1738807958.858669] [ohm:3089740:0]        ib_iface.c:1059 UCX  ERROR ibv_create_cq(cqe=256) failed: Connection timed out
[1738807958.876064] [ohm:3089774:0]        ib_iface.c:1059 UCX  ERROR ibv_create_cq(cqe=256) failed: Connection timed out
[1738807958.880400] [ohm:3089746:0]        ib_iface.c:1059 UCX  ERROR ibv_create_cq(cqe=256) failed: Connection timed out
[1738807958.880902] [ohm:3089743:0]        ib_iface.c:1059 UCX  ERROR ibv_create_cq(cqe=256) failed: Connection timed out
[1738807958.884794] [ohm:3089750:0]        ib_iface.c:1059 UCX  ERROR ibv_create_cq(cqe=256) failed: Connection timed out
[1738807958.904950] [ohm:3089844:0]        ib_iface.c:1059 UCX  ERROR ibv_create_cq(cqe=256) failed: Connection timed out
[1738807958.913987] [ohm:3089748:0]        ib_iface.c:1059 UCX  ERROR ibv_create_cq(cqe=256) failed: Connection timed out
[1738807958.919035] [ohm:3089742:0]        ib_iface.c:1059 UCX  ERROR ibv_create_cq(cqe=256) failed: Connection timed out
[1738807958.921132] [ohm:3089755:0]        ib_iface.c:1059 UCX  ERROR ibv_create_cq(cqe=256) failed: Connection timed out
[1738807958.925294] [ohm:3089744:0]        ib_iface.c:1059 UCX  ERROR ibv_create_cq(cqe=256) failed: Connection timed out
[1738807958.930302] [ohm:3089745:0]        ib_iface.c:1059 UCX  ERROR ibv_create_cq(cqe=256) failed: Connection timed out
[1738807958.930575] [ohm:3089749:0]        ib_iface.c:1059 UCX  ERROR ibv_create_cq(cqe=256) failed: Connection timed out
[1738807958.930993] [ohm:3089782:0]        ib_iface.c:1059 UCX  ERROR ibv_create_cq(cqe=256) failed: Connection timed out
[1738807958.941318] [ohm:3089763:0]        ib_iface.c:1059 UCX  ERROR ibv_create_cq(cqe=256) failed: Connection timed out
[1738807958.942494] [ohm:3089754:0]        ib_iface.c:1059 UCX  ERROR ibv_create_cq(cqe=256) failed: Connection timed out
[1738807958.942482] [ohm:3089789:0]        ib_iface.c:1059 UCX  ERROR ibv_create_cq(cqe=256) failed: Connection timed out
[1738807958.947988] [ohm:3089775:0]        ib_iface.c:1059 UCX  ERROR ibv_create_cq(cqe=256) failed: Connection timed out
[1738807958.975273] [ohm:3089835:0]        ib_iface.c:1059 UCX  ERROR ibv_create_cq(cqe=256) failed: Connection timed out
[1738807959.002180] [ohm:3089794:0]        ib_iface.c:1059 UCX  ERROR ibv_create_cq(cqe=256) failed: Connection timed out
[1738807959.005680] [ohm:3089767:0]        ib_iface.c:1059 UCX  ERROR ibv_create_cq(cqe=256) failed: Connection timed out
[1738807959.006938] [ohm:3089856:0]        ib_iface.c:1059 UCX  ERROR ibv_create_cq(cqe=256) failed: Connection timed out
[1738807959.008444] [ohm:3089761:0]        ib_iface.c:1059 UCX  ERROR ibv_create_cq(cqe=256) failed: Connection timed out
[1738807959.029169] [ohm:3089766:0]        ib_iface.c:1059 UCX  ERROR ibv_create_cq(cqe=256) failed: Connection timed out
[1738807959.029257] [ohm:3089765:0]        ib_iface.c:1059 UCX  ERROR ibv_create_cq(cqe=256) failed: Connection timed out
[1738807959.034986] [ohm:3089818:0]        ib_iface.c:1059 UCX  ERROR ibv_create_cq(cqe=256) failed: Connection timed out
[1738807959.036626] [ohm:3089840:0]        ib_iface.c:1059 UCX  ERROR ibv_create_cq(cqe=256) failed: Connection timed out
[1738807959.039368] [ohm:3089770:0]        ib_iface.c:1059 UCX  ERROR ibv_create_cq(cqe=256) failed: Connection timed out
[1738807959.045857] [ohm:3089798:0]        ib_iface.c:1059 UCX  ERROR ibv_create_cq(cqe=256) failed: Connection timed out
[1738807959.054941] [ohm:3089779:0]        ib_iface.c:1059 UCX  ERROR ibv_create_cq(cqe=256) failed: Connection timed out
[1738807959.055719] [ohm:3089804:0]        ib_iface.c:1059 UCX  ERROR ibv_create_cq(cqe=256) failed: Connection timed out
[1738807959.058433] [ohm:3089847:0]        ib_iface.c:1059 UCX  ERROR ibv_create_cq(cqe=256) failed: Connection timed out
[1738807959.058427] [ohm:3089890:0]        ib_iface.c:1059 UCX  ERROR ibv_create_cq(cqe=256) failed: Connection timed out
[1738807959.070140] [ohm:3089815:0]        ib_iface.c:1059 UCX  ERROR ibv_create_cq(cqe=256) failed: Connection timed out
[1738807959.073316] [ohm:3089864:0]        ib_iface.c:1059 UCX  ERROR ibv_create_cq(cqe=256) failed: Connection timed out
[1738807959.074989] [ohm:3089772:0]        ib_iface.c:1059 UCX  ERROR ibv_create_cq(cqe=256) failed: Connection timed out
[1738807959.082266] [ohm:3089859:0]        ib_iface.c:1059 UCX  ERROR ibv_create_cq(cqe=256) failed: Connection timed out
[1738807959.084740] [ohm:3089853:0]        ib_iface.c:1059 UCX  ERROR ibv_create_cq(cqe=256) failed: Connection timed out
[1738807959.085878] [ohm:3089768:0]        ib_iface.c:1059 UCX  ERROR ibv_create_cq(cqe=256) failed: Connection timed out
[1738807959.086951] [ohm:3089769:0]        ib_iface.c:1059 UCX  ERROR ibv_create_cq(cqe=256) failed: Connection timed out
[1738807959.088541] [ohm:3089747:0]        ib_iface.c:1059 UCX  ERROR ibv_create_cq(cqe=256) failed: Connection timed out
[1738807959.105887] [ohm:3089809:0]        ib_iface.c:1059 UCX  ERROR ibv_create_cq(cqe=256) failed: Connection timed out
[1738807959.105886] [ohm:3089771:0]        ib_iface.c:1059 UCX  ERROR ibv_create_cq(cqe=256) failed: Connection timed out
[1738807959.106890] [ohm:3089786:0]        ib_iface.c:1059 UCX  ERROR ibv_create_cq(cqe=256) failed: Connection timed out
[1738807959.108689] [ohm:3089792:0]        ib_iface.c:1059 UCX  ERROR ibv_create_cq(cqe=256) failed: Connection timed out
[1738807959.109848] [ohm:3089808:0]        ib_iface.c:1059 UCX  ERROR ibv_create_cq(cqe=256) failed: Connection timed out
[1738807959.109861] [ohm:3089875:0]        ib_iface.c:1059 UCX  ERROR ibv_create_cq(cqe=256) failed: Connection timed out
[1738807959.111856] [ohm:3089850:0]        ib_iface.c:1059 UCX  ERROR ibv_create_cq(cqe=256) failed: Connection timed out
[1738807959.112720] [ohm:3089879:0]        ib_iface.c:1059 UCX  ERROR ibv_create_cq(cqe=256) failed: Connection timed out
[1738807959.114649] [ohm:3089828:0]        ib_iface.c:1059 UCX  ERROR ibv_create_cq(cqe=256) failed: Connection timed out
[1738807959.115270] [ohm:3089884:0]        ib_iface.c:1059 UCX  ERROR ibv_create_cq(cqe=256) failed: Connection timed out
[1738807959.116938] [ohm:3089831:0]        ib_iface.c:1059 UCX  ERROR ibv_create_cq(cqe=256) failed: Connection timed out
[1738807959.120716] [ohm:3089871:0]        ib_iface.c:1059 UCX  ERROR ibv_create_cq(cqe=256) failed: Connection timed out
[1738807959.120852] [ohm:3089895:0]        ib_iface.c:1059 UCX  ERROR ibv_create_cq(cqe=256) failed: Connection timed out
[1738807959.121692] [ohm:3089764:0]        ib_iface.c:1059 UCX  ERROR ibv_create_cq(cqe=256) failed: Connection timed out
[1738807959.123551] [ohm:3089866:0]        ib_iface.c:1059 UCX  ERROR ibv_create_cq(cqe=256) failed: Connection timed out
[1738807959.125769] [ohm:3089838:0]        ib_iface.c:1059 UCX  ERROR ibv_create_cq(cqe=256) failed: Connection timed out
[1738807959.126694] [ohm:3089823:0]        ib_iface.c:1059 UCX  ERROR ibv_create_cq(cqe=256) failed: Connection timed out
[1738807959.129130] [ohm:3089801:0]        ib_iface.c:1059 UCX  ERROR ibv_create_cq(cqe=256) failed: Connection timed out

--------------------------------
SUGGESTED CITATIONS FOR THIS RUN
--------------------------------

Below you find a list of papers that are relevant to this ORCA run
We neither can nor want to force you to cite these papers, but we appreciate if you do
You receive ORCA, which is the product of decades of hard work by many enthusiastic individuals, for free
The only thing we kindly ask in return is that you cite our papers,
We deeply appreciate it, if you show your appreciation for ORCA by not just citing the generic ORCA reference.

Please note that relegating all ORCA citations to the supporting information does *not* help us.
SI sections are not indexed - citations you put there will not count into any citation statistics
But we need these citations in order to attract the funding resources that allow us to do what we are doing

Therefore, if you are a happy ORCA user, please consider citing a few of the papers listed below in the main body of your paper

In addition to the list printed below, the program has created the file orca.bibtex that contains the list in bibtex format
You can import this file easily into all common literature databanks and citation aid programs


List of essential papers. We consider these as the minimum necessary citations

  1. Neese,F.
     Software update: the ORCA program system, version 5.0
     WIRES Comput. Molec. Sci., 2022 12(1)e1606
     doi.org/10.1002/wcms.1606

List of papers to cite with high priority. The work reported in these papers was absolutely
necessary for this run to complete.
Our perspective: the developers of density functionals and basis sets usually get cited in chemistry papers
Good! But without the algorithms to do something with them, the functionals or basis sets would not do anything.
Hence, in our opinion, the algorithm design and method developments papers are equally worthy of getting cited

  1. Neese,F.; Olbrich,G.
     Efficient use of the resolution of the identity approximation in time-dependent density functional calculations with hybrid density functionals
     Chem. Phys. Lett., 2002 362 170-178
     doi.org/10.1016/s0009-2614(02)01053-9
  2. Neese,F.
     An improvement of the resolution of the identity approximation for the formation of the Coulomb matrix
     J. Comp. Chem., 2003 24(14)1740-1747
     doi.org/10.1002/jcc.10318
  3. Neese,F.; Wennmohs,F.; Hansen,A.; Becker,U.
     Efficient, approximate and parallel Hartree-Fock and hybrid DFT calculations. A 'chain-of-spheres' algorithm for the Hartree-Fock exchange
     Chem. Phys., 2009 356(1-3)98-109
     doi.org/10.1016/j.chemphys.2008.10.036
  4. Petrenko,T.; Kossmann,S.; Neese,F.
     Efficient time-dependent density functional theory approximations for hybrid density functionals: Analytical gradients and parallelization
     J. Chem. Phys., 2011 134 054116
     doi.org/10.1063/1.3533441
  5. Helmich-Paris,B.; de Souza,B.; Neese,F.; Izsák,R.
     An improved chain of spheres for exchange algorithm
     J. Chem. Phys., 2021 155 104109
     doi.org/doi: 10.1063/5.0058766.
  6. Neese,F.
     The SHARK Integral Generation and Digestion System
     J. Comp. Chem., 2022  1-16
     doi.org/10.1002/jcc.26942
  7. Lehtola,S.; Steigemann,C.; Oliveira,M.; Marques,M.
     Recent developments in Libxc - A comprehensive library of functionals for density functional theory
     Software X, 2018 7 
     doi.org/10.1016/j.softx.2017.11.002
  8. Grimme,S.; Antony,J.; Ehrlich,S.; Krieg,H.
     A consistent and accurate ab initio parametrization of density functional dispersion correction (DFT-D) for the 94 elements H-Pu
     J. Chem. Phys., 2010 132 154104-XXXX
     doi.org/10.1063/1.3382344
  9. Grimme,S.; Ehrlich,S.; Goerigk,L.
     Effect of the damping function in dispersion corrected density functional theory
     J. Comput. Chem., 2011 32(7)1456-1465
     doi.org/10.1002/jcc.21759

List of suggested additional citations. These are papers that are important in the 'surrounding' of 
of this run, or papers that preceded the highly important papers. If you like your results we are grateful for a citation.

  1. Izsak,R.; Neese,F.
     An overlap fitted chain of spheres exchange method
     J. Chem. Phys., 2011 135 144105
     doi.org/10.1063/1.3646921
  2. Izsak,R.; Hansen,A.; Neese,F.
     The resolution of identity and chain of spheres approximations for the LPNO-CCSD singles Fock term
     Molec. Phys., 2012 110 2413-2417
     doi.org/10.1080/00268976.2012.687466
  3. Neese,F.
     The ORCA program system
     WIRES Comput. Molec. Sci., 2012 2(1)73-78
     doi.org/10.1002/wcms.81
  4. Izsak,R.; Neese,F.; Klopper,W.
     Robust fitting techniques in the chain of spheres approximation to the Fock exchange: The role of the complementary space
     J. Chem. Phys., 2013 139 
     doi.org/10.1063/1.4819264
  5. Neese,F.
     Software update: the ORCA program system, version 4.0
     WIRES Comput. Molec. Sci., 2018 8(1)1-6
     doi.org/10.1002/wcms.1327
  6. Neese,F.; Wennmohs,F.; Becker,U.; Riplinger,C.
     The ORCA quantum chemistry program package
     J. Chem. Phys., 2020 152 Art. No. L224108
     doi.org/10.1063/5.0004608

List of optional additional citations

  1. Neese,F.
     Approximate second-order SCF convergence for spin unrestricted wavefunctions
     Chem. Phys. Lett., 2000 325(1-3)93-98
     doi.org/10.1016/s0009-2614(00)00662-x

Timings for individual modules:

Sum of individual times          ...      284.327 sec (=   4.739 min)
Startup calculation              ...        6.281 sec (=   0.105 min)   2.2 %
SCF iterations                   ...      135.543 sec (=   2.259 min)  47.7 %
Property integrals               ...        4.261 sec (=   0.071 min)   1.5 %
Property calculations            ...        2.784 sec (=   0.046 min)   1.0 %
CIS module                       ...      135.458 sec (=   2.258 min)  47.6 %
                             ****ORCA TERMINATED NORMALLY****
TOTAL RUN TIME: 0 days 0 hours 4 minutes 46 seconds 294 msec
