7
Properties=species:S:1:pos:R:3:momenta:R:3:forces:R:3 Coordinates=T from=T ORCA-job=T orca=T E=T -153.773453807806=T energy=-4183.696314013345 free_energy=-4183.696314013345 stress="-2.9424377098229093e-06 1.0865765984987776e-06 -2.0915940790501755e-06 1.0865765984987776e-06 -2.534894400522271e-06 1.8669928480358456e-06 -2.0915940790501755e-06 1.8669928480358456e-06 -1.871132167143087e-07" pbc="F F F"
O        0.96927518       0.78423805      -0.33075483       0.40781782      -1.56548482       0.57468531       0.46964261       0.48159085      -0.10152254
C        0.23363343       0.13130615       0.59448500      -0.90987175       1.54503269      -0.32195774      -2.28541981      -0.09047200      -0.15909965
C       -0.83487325      -0.73685855       0.05581971      -0.09248715      -0.05842879       0.30831574      -1.06003402      -0.25164396      -1.87895743
H       -0.25235971       0.82597737       1.31981003       0.19708351      -0.25647900      -0.40019660       0.43442529       0.36085362      -0.26928268
H        0.78681810      -0.46511718       1.25659056      -0.03312457       0.24049864       0.17044134       1.58649501      -0.75329988       1.05061778
H       -1.18098326      -1.67608296       0.46804137       0.23537360      -0.03984845      -0.09441664       0.31157566       0.26711786       0.38244060
H       -1.28073112      -0.50317191      -0.94473482       0.19520853       0.13470972      -0.23687141       0.54331526      -0.01414649       0.97580392
