
                                 *****************
                                 * O   R   C   A *
                                 *****************

                                            #,                                       
                                            ###                                      
                                            ####                                     
                                            #####                                    
                                            ######                                   
                                           ########,                                 
                                     ,,################,,,,,                         
                               ,,#################################,,                 
                          ,,##########################################,,             
                       ,#########################################, ''#####,          
                    ,#############################################,,   '####,        
                  ,##################################################,,,,####,       
                ,###########''''           ''''###############################       
              ,#####''   ,,,,##########,,,,          '''####'''          '####       
            ,##' ,,,,###########################,,,                        '##       
           ' ,,###''''                  '''############,,,                           
         ,,##''                                '''############,,,,        ,,,,,,###''
      ,#''                                            '''#######################'''  
     '                                                          ''''####''''         
             ,#######,   #######,   ,#######,      ##                                
            ,#'     '#,  ##    ##  ,#'     '#,    #''#        ,####,   ,####,        
            ##       ##  ##   ,#'  ##            #'  '#       #'       #'  '#        
            ##       ##  #######   ##           ,######,      #####,   #    #        
            '#,     ,#'  ##    ##  '#,     ,#' ,#      #,     #,   #   #,  ,#        
             '#######'   ##     ##  '#######'  #'      '#     '####' # '####'        



                #########################################################
                #                        -***-                          #
                #          Department of theory and spectroscopy        #
                #                                                       #
                #                      Frank Neese                      #
                #                                                       #
                #     Directorship, Architecture, Infrastructure        #
                #                    SHARK, DRIVERS                     #
                #        Core code/Algorithms in most modules           #
                #                                                       #
                #        Max Planck Institute fuer Kohlenforschung      #
                #                Kaiser Wilhelm Platz 1                 #
                #                 D-45470 Muelheim/Ruhr                 #
                #                      Germany                          #
                #                                                       #
                #                  All rights reserved                  #
                #                        -***-                          #
                #########################################################


                         Program Version 6.0.0  -   RELEASE  -


 With contributions from (in alphabetic order):
   Daniel Aravena         : Magnetic Suceptibility
   Michael Atanasov       : Ab Initio Ligand Field Theory (pilot matlab implementation)
   Alexander A. Auer      : GIAO ZORA, VPT2 properties, NMR spectrum
   Ute Becker             : All parallelization in ORCA, NUMFREQ, NUMCALC
   Giovanni Bistoni       : ED, misc. LED, open-shell LED, HFLD
   Martin Brehm           : Molecular dynamics
   Dmytro Bykov           : pre 5.0 version of the SCF Hessian
   Marcos Casanova-Páez   : Triplet and SCS-CIS(D). UHF-(DLPNO)-IP/EA/STEOM-CCSD. UHF-CVS-IP/STEOM-CCSD
   Vijay G. Chilkuri      : MRCI spin determinant printing, contributions to CSF-ICE
   Pauline Colinet        : FMM embedding
   Dipayan Datta          : RHF DLPNO-CCSD density
   Achintya Kumar Dutta   : EOM-CC, STEOM-CC
   Nicolas Foglia         : Exact transition moments, OPA infrastructure, MCD improvements
   Dmitry Ganyushin       : Spin-Orbit,Spin-Spin,Magnetic field MRCI
   Miquel Garcia          : C-PCM and meta-GGA Hessian, CCSD/C-PCM, Gaussian charge scheme
   Tiago L. C. Gouveia    : GS-ROHF, GS-ROCIS
   Yang Guo               : DLPNO-NEVPT2, F12-NEVPT2, CIM, IAO-localization
   Andreas Hansen         : Spin unrestricted coupled pair/coupled cluster methods
   Ingolf Harden          : AUTO-CI MPn and infrastructure 
   Benjamin Helmich-Paris : MC-RPA, TRAH-(SCF,CASSCF), AVAS, COSX integrals, SCF dyn. polar.
   Lee Huntington         : MR-EOM, pCC
   Robert Izsak           : Overlap fitted RIJCOSX, COSX-SCS-MP3, EOM
   Riya Kayal             : Wick's Theorem for AUTO-CI, AUTO-CI UHF-CCSDT
   Emily Kempfer          : AUTO-CI, RHF CISDT and CCSDT
   Christian Kollmar      : KDIIS, OOCD, Brueckner-CCSD(T), CCSD density, CASPT2, CASPT2-K, improved NEVPT2
   Axel Koslowski         : Symmetry handling
   Simone Kossmann        : Meta GGA functionals, TD-DFT gradient, OOMP2, (MP2 Hessian; deprecated post 5.0)
   Lucas Lang             : DCDCAS
   Marvin Lechner         : AUTO-CI (C++ implementation), FIC-MRCC
   Spencer Leger          : CASSCF response
   Dagmar Lenk            : GEPOL surface, SMD, ORCA-2-JSON
   Dimitrios Liakos       : Extrapolation schemes; Compound Job, initial MDCI parallelization
   Dimitrios Manganas     : Further ROCIS development; embedding schemes. LFT, Crystal Embedding
   Dimitrios Pantazis     : SARC Basis sets
   Anastasios Papadopoulos: AUTO-CI, single reference methods and gradients
   Taras Petrenko         : pre 6.0 DFT Hessian and TD-DFT gradient, (ASA, deprecated), ECA, 1-Electron XAS/XES, NRVS
   Peter Pinski           : DLPNO-MP2, DLPNO-MP2 Gradient
   Christoph Reimann      : Effective Core Potentials
   Marius Retegan         : Local ZFS, SOC
   Christoph Riplinger    : Optimizer, TS searches, QM/MM, DLPNO-CCSD(T), (RO)-DLPNO pert. Triples
   Michael Roemelt        : Original ROCIS implementation
   Masaaki Saitow         : Open-shell DLPNO-CCSD energy and density
   Barbara Sandhoefer     : DKH picture change effects
   Kantharuban Sivalingam : CASSCF convergence/infrastructure, NEVPT2 and variants, FIC-MRCI
   Bernardo de Souza      : ESD, SOC TD-DFT
   Georgi Stoychev        : AutoAux, RI-MP2 NMR, DLPNO-MP2 response, X2C
   Van Anh Tran           : RI-MP2 g-tensors
   Willem Van den Heuvel  : Paramagnetic NMR
   Zikuan Wang            : NOTCH, Electric field optimization 
   Frank Wennmohs         : Technical directorship and infrastructure
   Hang Xu                : AUTO-CI-Response properties 


 We gratefully acknowledge several colleagues who have allowed us to
 interface, adapt or use parts of their codes:
   Stefan Grimme, W. Hujo, H. Kruse, P. Pracht,  : VdW corrections, initial TS optimization,
                  C. Bannwarth, S. Ehlert,         DFT functionals, gCP, sTDA/sTD-DF
                  L. Wittmann, M. Mueller
   Ed Valeev, F. Pavosevic, A. Kumar             : LibInt (2-el integral package), F12 methods
   Garnet Chan, S. Sharma, J. Yang, R. Olivares  : DMRG
   Ulf Ekstrom                                   : XCFun DFT Library
   Mihaly Kallay                                 : mrcc  (arbitrary order and MRCC methods)
   Frank Weinhold                                : gennbo (NPA and NBO analysis)
   Simon Mueller                                 : openCOSMO-RS
   Christopher J. Cramer and Donald G. Truhlar   : smd solvation model
   Lars Goerigk                                  : TD-DFT with DH, B97 family of functionals
   V. Asgeirsson, H. Jonsson                     : NEB implementation
   FAccTs GmbH                                   : IRC, NEB, NEB-TS, DLPNO-Multilevel, CI-OPT
                                                   MM, QMMM, 2- and 3-layer-ONIOM, Crystal-QMMM,
                                                   LR-CPCM, SF, NACMEs, symmetry and pop. for TD-DFT,
                                                   nearIR, NL-DFT gradient (VV10), updates on ESD,
                                                   ML-optimized integration grids, MBIS, APM,
                                                   GOAT, DOCKER, SOLVATOR, interface openCOSMO-RS
   S Lehtola, MJT Oliveira, MAL Marques          : LibXC Library
   Liviu Ungur et al                             : ANISO software


 Your calculation uses the libint2 library for the computation of 2-el integrals
 For citations please refer to: http://libint.valeyev.net

 Your ORCA version has been built with support for libXC version: 6.2.2
 For citations please refer to: https://libxc.gitlab.io

 This ORCA versions uses:
   CBLAS   interface :  Fast vector & matrix operations
   LAPACKE interface :  Fast linear algebra routines
   SCALAPACK package :  Parallel linear algebra routines
   Shared memory     :  Shared parallel matrices
   BLAS/LAPACK       :  OpenBLAS 0.3.27  USE64BITINT DYNAMIC_ARCH NO_AFFINITY Zen SINGLE_THREADED
        Core in use  :  Zen
   Copyright (c) 2011-2014, The OpenBLAS Project


Your calculation utilizes the atom-pairwise dispersion correction
with the Becke-Johnson damping scheme (D3BJ)


Warning: RI is on but no J-basis has been assigned. Assigning Def2/J (nothing to worry about!)
================================================================================

----- Orbital basis set information -----
Your calculation utilizes the basis: def2-TZVPPD
   F. Weigend and R. Ahlrichs, Phys. Chem. Chem. Phys. 7, 3297 (2005).
   D. Rappoport and F. Furche, J. Chem. Phys. 133, 134105 (2010)
   D. Rappoport, J. Chem. Phys. 155, 124102 (2021).

----- AuxJ basis set information -----
Your calculation utilizes the auxiliary basis: def2/J
   F. Weigend, Phys. Chem. Chem. Phys. 8, 1057 (2006).

================================================================================
                                        WARNINGS
                       Please study these warnings very carefully!
================================================================================

Using LibXC functional ID 531 : wB97M-V exchange-correlation functional
[ 1]  N. Mardirossian and M. Head-Gordon.,  J. Chem. Phys. 144, 214110 (2016)
Using LibXC functional ID 531 : wB97M-V exchange-correlation functional
[ 1]  N. Mardirossian and M. Head-Gordon.,  J. Chem. Phys. 144, 214110 (2016)

WARNING: B97M-V or wB97M-V functional requested.
  ===> : libXC variant has now been activated.
         Any manually given DFX/HFX/RangeSep scaling parameters are IGNORED!

Your calculation utilizes LibXC
 by S Lehtola, C Steigemann, MJT Oliveira & MAL Marques
Please cite in your paper:
 S Lehtola, C Steigemann, MJT Oliveira & MAL Marques, SoftwareX, 7, (2018), 1.
   


WARNING: your system is open-shell and RHF/RKS was chosen
  ===> : WILL SWITCH to UHF/UKS

INFO   : Checking CIS options ...

WARNING: CIS/ROCIS methods need fully converged wavefunctions
  ===> : Setting SCFConvForced true
         You can overwrite this default with %scf ConvForced false 


================================================================================
                                       INPUT FILE
================================================================================
NAME = orca.inp
|  1> ! Engrad def2-TZVPPD wB97M-D3BJ 
|  2> %pal nprocs 8 end%pal nprocs 64 end 
|  3> %tddft 
|  4> Iroot 2 Nroots 3 
|  5> sf true 
|  6> end 
|  7> *xyz 0 3 
|  8> O   2.5149342304960056 1.2122971417085089 -0.41033601268258496
|  9> O   -0.7222434458542769 0.8496450000448832 -2.357283313886575
| 10> O   0.5297454209191755 -2.7014478966146576 -1.538583962087879
| 11> O   -2.4507250189938037 -1.5493869646290643 1.067038350054696
| 12> N   0.629257949768122 -2.1230874692149744 0.6444726597696869
| 13> N   -1.9228081894611702 0.6089248289773793 1.4282242799846288
| 14> N   1.6165737004158849 -0.7939701026004279 -0.9356982571166333
| 15> N   -1.631185451575444 -0.31276492228833613 -0.649799524760672
| 16> C   1.5180014901307093 -0.022697029009684653 1.3210451583956948
| 17> C   -0.9036660019463865 1.9347042247744024 -0.2620472539925977
| 18> C   0.8757436164986557 -1.1671225839792778 1.5939009289070176
| 19> C   -1.321266727580963 1.754963042107427 0.9974568968389915
| 20> C   1.8351507975477903 0.9948261336908473 2.3410393746727074
| 21> C   -0.322909595881804 3.1939504227976085 -0.7525764896960102
| 22> C   1.940204511100881 0.21437106703985478 -0.045260981295149626
| 23> C   -1.0601814883428222 0.8305430501455568 -1.198179245510114
| 24> C   0.899516966453238 -1.9346494704386892 -0.6833738379177989
| 25> C   -2.0358771320309836 -0.49798367235544316 0.6431075659820882
| 26> H   0.5779846132768348 -1.4348110603127713 2.5940932538770007
| 27> H   -1.268721655609979 2.5431333417698467 1.7294192147693241
| 28> H   1.4341929827817446 1.9613848269860346 2.0475242557605946
| 29> H   1.4295932113175271 0.7401091104999209 3.3160585256292836
| 30> H   2.9039136850442766 1.1436913422479034 2.46553867215445
| 31> H   -0.9022025102874789 3.5573899291457907 -1.597177531695923
| 32> H   -0.28100082694505235 3.9691839446043513 0.004315535807501565
| 33> H   0.6900821755707427 3.0315063621744764 -1.11131211849038
| 34> H   0.005333236017979725 -2.883772864276696 0.8458079821623397
| 35> H   -2.210795627099625 0.5066321020557243 2.3822875626206335
| 36> H   1.7857788591583872 -0.6001492587968612 -1.9107847915471037
| 37> H   -1.6998237748881986 -1.110412576253694 -1.2643168967072254
| 38> *
| 39> 
| 40>                          ****END OF INPUT****
================================================================================

                     *******************************
                     * Energy+Gradient Calculation *
                     *******************************

---------------------------------
CARTESIAN COORDINATES (ANGSTROEM)
---------------------------------
  O      2.514934    1.212297   -0.410336
  O     -0.722243    0.849645   -2.357283
  O      0.529745   -2.701448   -1.538584
  O     -2.450725   -1.549387    1.067038
  N      0.629258   -2.123087    0.644473
  N     -1.922808    0.608925    1.428224
  N      1.616574   -0.793970   -0.935698
  N     -1.631185   -0.312765   -0.649800
  C      1.518001   -0.022697    1.321045
  C     -0.903666    1.934704   -0.262047
  C      0.875744   -1.167123    1.593901
  C     -1.321267    1.754963    0.997457
  C      1.835151    0.994826    2.341039
  C     -0.322910    3.193950   -0.752576
  C      1.940205    0.214371   -0.045261
  C     -1.060181    0.830543   -1.198179
  C      0.899517   -1.934649   -0.683374
  C     -2.035877   -0.497984    0.643108
  H      0.577985   -1.434811    2.594093
  H     -1.268722    2.543133    1.729419
  H      1.434193    1.961385    2.047524
  H      1.429593    0.740109    3.316059
  H      2.903914    1.143691    2.465539
  H     -0.902203    3.557390   -1.597178
  H     -0.281001    3.969184    0.004316
  H      0.690082    3.031506   -1.111312
  H      0.005333   -2.883773    0.845808
  H     -2.210796    0.506632    2.382288
  H      1.785779   -0.600149   -1.910785
  H     -1.699824   -1.110413   -1.264317

----------------------------
CARTESIAN COORDINATES (A.U.)
----------------------------
  NO LB      ZA    FRAG     MASS         X           Y           Z
   0 O     8.0000    0    15.999    4.752537    2.290910   -0.775423
   1 O     8.0000    0    15.999   -1.364842    1.605596   -4.454620
   2 O     8.0000    0    15.999    1.001074   -5.104997   -2.907502
   3 O     8.0000    0    15.999   -4.631199   -2.927917    2.016410
   4 N     7.0000    0    14.007    1.189125   -4.012054    1.217877
   5 N     7.0000    0    14.007   -3.633581    1.150701    2.698953
   6 N     7.0000    0    14.007    3.054882   -1.500386   -1.768213
   7 N     7.0000    0    14.007   -3.082494   -0.591040   -1.227943
   8 C     6.0000    0    12.011    2.868607   -0.042891    2.496414
   9 C     6.0000    0    12.011   -1.707681    3.656061   -0.495198
  10 C     6.0000    0    12.011    1.654916   -2.205542    3.012036
  11 C     6.0000    0    12.011   -2.496832    3.316400    1.884920
  12 C     6.0000    0    12.011    3.467932    1.879949    4.423923
  13 C     6.0000    0    12.011   -0.610211    6.035692   -1.422163
  14 C     6.0000    0    12.011    3.666455    0.405103   -0.085531
  15 C     6.0000    0    12.011   -2.003453    1.569499   -2.264231
  16 C     6.0000    0    12.011    1.699841   -3.655958   -1.291389
  17 C     6.0000    0    12.011   -3.847250   -0.941053    1.215297
  18 H     1.0000    0     1.008    1.092233   -2.711400    4.902126
  19 H     1.0000    0     1.008   -2.397536    4.805826    3.268129
  20 H     1.0000    0     1.008    2.710232    3.706480    3.869260
  21 H     1.0000    0     1.008    2.701540    1.398604    6.266442
  22 H     1.0000    0     1.008    5.487602    2.161263    4.659193
  23 H     1.0000    0     1.008   -1.704916    6.722493   -3.018228
  24 H     1.0000    0     1.008   -0.531015    7.500671    0.008155
  25 H     1.0000    0     1.008    1.304066    5.728717   -2.100076
  26 H     1.0000    0     1.008    0.010078   -5.449541    1.598345
  27 H     1.0000    0     1.008   -4.177798    0.957396    4.501871
  28 H     1.0000    0     1.008    3.374633   -1.134118   -3.610860
  29 H     1.0000    0     1.008   -3.212201   -2.098376   -2.389213

--------------------------------
INTERNAL COORDINATES (ANGSTROEM)
--------------------------------
 O      0   0   0     0.000000000000     0.00000000     0.00000000
 O      1   0   0     3.794922881664     0.00000000     0.00000000
 O      2   1   0     3.853310980425    72.65671853     0.00000000
 O      3   2   1     4.123071193630    69.01619295   100.27431766
 N      3   2   1     2.260561819906    89.06621881    53.90189940
 N      4   3   2     2.251102230754   101.52366136   320.09089645
 N      1   2   3     2.260125081819    57.10179090     0.49061788
 N      2   1   3     2.256739525827    90.26477353    57.99062368
 C      1   2   3     2.348779736392    88.04412705   302.56225294
 C      2   1   3     2.366491456082    64.36388544   116.82271880
 C      9   1   2     1.340393710300   143.35613673    53.05693023
 C     10   2   1     1.339047409452   142.66895976   255.12877401
 C      9   1   2     1.475237360924    93.19611037   232.61122616
 C     10   2   1     1.470917374124    93.84167286    75.94008993
 C      1   2   3     1.208077182717    70.74822695   328.59940806
 C      2   1   3     1.207513663019    75.39051983    86.74738822
 C      3   2   1     1.206687688988    70.39870440    29.09769721
 C      4   3   2     1.207172300049    76.88034601   338.64751755
 H     11   9   1     1.077358914796   122.24582789   177.22153328
 H     12  10   2     1.076913293041   121.72568787   182.03134212
 H     13   9   1     1.086809091716   110.32691178    55.56139163
 H     13   9   1     1.086287283542   112.24670675   176.38520333
 H     13   9   1     1.086238940143   112.66204932   297.58669394
 H     14  10   2     1.086747199491   109.57370244    56.68482861
 H     14  10   2     1.084264218960   113.23860591   178.48347385
 H     14  10   2     1.086844815615   110.49435837   299.18063404
 H      5   3   2     1.004221206075    88.42203680   122.59062438
 H      6   4   3     1.001817005991    89.28305047   216.88976645
 H      7   1   2     1.008459545478    89.28128425    66.00761023
 H      8   2   1     1.009249523026    88.49809547   243.49971780

---------------------------
INTERNAL COORDINATES (A.U.)
---------------------------
 O      0   0   0     0.000000000000     0.00000000     0.00000000
 O      1   0   0     7.171364945697     0.00000000     0.00000000
 O      2   1   0     7.281702461835    72.65671853     0.00000000
 O      3   2   1     7.791475386620    69.01619295   100.27431766
 N      3   2   1     4.271842748421    89.06621881    53.90189940
 N      4   3   2     4.253966715583   101.52366136   320.09089645
 N      1   2   3     4.271017433045    57.10179090     0.49061788
 N      2   1   3     4.264619659409    90.26477353    57.99062368
 C      1   2   3     4.438550450684    88.04412705   302.56225294
 C      2   1   3     4.472020750260    64.36388544   116.82271880
 C      9   1   2     2.532977024097   143.35613673    53.05693023
 C     10   2   1     2.530432884200   142.66895976   255.12877401
 C      9   1   2     2.787794594675    93.19611037   232.61122616
 C     10   2   1     2.779631002722    93.84167286    75.94008993
 C      1   2   3     2.282935023975    70.74822695   328.59940806
 C      2   1   3     2.281870126074    75.39051983    86.74738822
 C      3   2   1     2.280309261362    70.39870440    29.09769721
 C      4   3   2     2.281225043549    76.88034601   338.64751755
 H     11   9   1     2.035913296903   122.24582789   177.22153328
 H     12  10   2     2.035071193827   121.72568787   182.03134212
 H     13   9   1     2.053771543199   110.32691178    55.56139163
 H     13   9   1     2.052785468655   112.24670675   176.38520333
 H     13   9   1     2.052694112870   112.66204932   297.58669394
 H     14  10   2     2.053654583845   109.57370244    56.68482861
 H     14  10   2     2.048962430645   113.23860591   178.48347385
 H     14  10   2     2.053839051584   110.49435837   299.18063404
 H      5   3   2     1.897703057358    88.42203680   122.59062438
 H      6   4   3     1.893159777628    89.28305047   216.88976645
 H      7   1   2     1.905712358092    89.28128425    66.00761023
 H      8   2   1     1.907205199309    88.49809547   243.49971780

---------------------
BASIS SET INFORMATION
---------------------
There are 4 groups of distinct atoms

 Group   1 Type O   : 12s7p3d1f contracted to 6s4p3d1f pattern {621111/4111/111/1}
 Group   2 Type N   : 12s6p3d1f contracted to 6s3p3d1f pattern {621111/411/111/1}
 Group   3 Type C   : 12s6p3d1f contracted to 6s3p3d1f pattern {621111/411/111/1}
 Group   4 Type H   : 5s3p1d contracted to 3s3p1d pattern {311/111/1}

Atom   0O    basis set group =>   1
Atom   1O    basis set group =>   1
Atom   2O    basis set group =>   1
Atom   3O    basis set group =>   1
Atom   4N    basis set group =>   2
Atom   5N    basis set group =>   2
Atom   6N    basis set group =>   2
Atom   7N    basis set group =>   2
Atom   8C    basis set group =>   3
Atom   9C    basis set group =>   3
Atom  10C    basis set group =>   3
Atom  11C    basis set group =>   3
Atom  12C    basis set group =>   3
Atom  13C    basis set group =>   3
Atom  14C    basis set group =>   3
Atom  15C    basis set group =>   3
Atom  16C    basis set group =>   3
Atom  17C    basis set group =>   3
Atom  18H    basis set group =>   4
Atom  19H    basis set group =>   4
Atom  20H    basis set group =>   4
Atom  21H    basis set group =>   4
Atom  22H    basis set group =>   4
Atom  23H    basis set group =>   4
Atom  24H    basis set group =>   4
Atom  25H    basis set group =>   4
Atom  26H    basis set group =>   4
Atom  27H    basis set group =>   4
Atom  28H    basis set group =>   4
Atom  29H    basis set group =>   4
---------------------------------
AUXILIARY/J BASIS SET INFORMATION
---------------------------------
There are 4 groups of distinct atoms

 Group   1 Type O   : 12s5p4d2f1g contracted to 6s4p3d1f1g pattern {711111/2111/211/2/1}
 Group   2 Type N   : 12s5p4d2f1g contracted to 6s4p3d1f1g pattern {711111/2111/211/2/1}
 Group   3 Type C   : 12s5p4d2f1g contracted to 6s4p3d1f1g pattern {711111/2111/211/2/1}
 Group   4 Type H   : 5s2p1d contracted to 3s1p1d pattern {311/2/1}

Atom   0O    basis set group =>   1
Atom   1O    basis set group =>   1
Atom   2O    basis set group =>   1
Atom   3O    basis set group =>   1
Atom   4N    basis set group =>   2
Atom   5N    basis set group =>   2
Atom   6N    basis set group =>   2
Atom   7N    basis set group =>   2
Atom   8C    basis set group =>   3
Atom   9C    basis set group =>   3
Atom  10C    basis set group =>   3
Atom  11C    basis set group =>   3
Atom  12C    basis set group =>   3
Atom  13C    basis set group =>   3
Atom  14C    basis set group =>   3
Atom  15C    basis set group =>   3
Atom  16C    basis set group =>   3
Atom  17C    basis set group =>   3
Atom  18H    basis set group =>   4
Atom  19H    basis set group =>   4
Atom  20H    basis set group =>   4
Atom  21H    basis set group =>   4
Atom  22H    basis set group =>   4
Atom  23H    basis set group =>   4
Atom  24H    basis set group =>   4
Atom  25H    basis set group =>   4
Atom  26H    basis set group =>   4
Atom  27H    basis set group =>   4
Atom  28H    basis set group =>   4
Atom  29H    basis set group =>   4
[1741450283.343688] [ohm:1965539:0]        ib_iface.c:1059 UCX  ERROR ibv_create_cq(cqe=256) failed: Connection timed out
[1741450283.347222] [ohm:1965607:0]        ib_iface.c:1059 UCX  ERROR ibv_create_cq(cqe=256) failed: Connection timed out
[1741450283.347500] [ohm:1965537:0]        ib_iface.c:1059 UCX  ERROR ibv_create_cq(cqe=256) failed: Connection timed out
[1741450283.348223] [ohm:1965541:0]        ib_iface.c:1059 UCX  ERROR ibv_create_cq(cqe=256) failed: Connection timed out
[1741450283.357402] [ohm:1965538:0]        ib_iface.c:1059 UCX  ERROR ibv_create_cq(cqe=256) failed: Connection timed out
[1741450283.357795] [ohm:1965546:0]        ib_iface.c:1059 UCX  ERROR ibv_create_cq(cqe=256) failed: Connection timed out
[1741450283.363038] [ohm:1965542:0]        ib_iface.c:1059 UCX  ERROR ibv_create_cq(cqe=256) failed: Connection timed out
[1741450283.375509] [ohm:1965556:0]        ib_iface.c:1059 UCX  ERROR ibv_create_cq(cqe=256) failed: Connection timed out
[1741450283.390290] [ohm:1965552:0]        ib_iface.c:1059 UCX  ERROR ibv_create_cq(cqe=256) failed: Connection timed out
[1741450283.396839] [ohm:1965553:0]        ib_iface.c:1059 UCX  ERROR ibv_create_cq(cqe=256) failed: Connection timed out
[1741450283.397804] [ohm:1965540:0]        ib_iface.c:1059 UCX  ERROR ibv_create_cq(cqe=256) failed: Connection timed out
[1741450283.402893] [ohm:1965595:0]        ib_iface.c:1059 UCX  ERROR ibv_create_cq(cqe=256) failed: Connection timed out
[1741450283.403481] [ohm:1965577:0]        ib_iface.c:1059 UCX  ERROR ibv_create_cq(cqe=256) failed: Connection timed out
[1741450283.414633] [ohm:1965588:0]        ib_iface.c:1059 UCX  ERROR ibv_create_cq(cqe=256) failed: Connection timed out
[1741450283.433216] [ohm:1965630:0]        ib_iface.c:1059 UCX  ERROR ibv_create_cq(cqe=256) failed: Connection timed out
[1741450283.438755] [ohm:1965550:0]        ib_iface.c:1059 UCX  ERROR ibv_create_cq(cqe=256) failed: Connection timed out
[1741450283.441475] [ohm:1965657:0]        ib_iface.c:1059 UCX  ERROR ibv_create_cq(cqe=256) failed: Connection timed out
[1741450283.442658] [ohm:1965654:0]        ib_iface.c:1059 UCX  ERROR ibv_create_cq(cqe=256) failed: Connection timed out
[1741450283.446135] [ohm:1965544:0]        ib_iface.c:1059 UCX  ERROR ibv_create_cq(cqe=256) failed: Connection timed out
[1741450283.450090] [ohm:1965545:0]        ib_iface.c:1059 UCX  ERROR ibv_create_cq(cqe=256) failed: Connection timed out
[1741450283.459790] [ohm:1965551:0]        ib_iface.c:1059 UCX  ERROR ibv_create_cq(cqe=256) failed: Connection timed out
[1741450283.499560] [ohm:1965688:0]        ib_iface.c:1059 UCX  ERROR ibv_create_cq(cqe=256) failed: Connection timed out
[1741450283.507603] [ohm:1965593:0]        ib_iface.c:1059 UCX  ERROR ibv_create_cq(cqe=256) failed: Connection timed out
[1741450283.516653] [ohm:1965659:0]        ib_iface.c:1059 UCX  ERROR ibv_create_cq(cqe=256) failed: Connection timed out
[1741450283.516885] [ohm:1965636:0]        ib_iface.c:1059 UCX  ERROR ibv_create_cq(cqe=256) failed: Connection timed out
[1741450283.517571] [ohm:1965558:0]        ib_iface.c:1059 UCX  ERROR ibv_create_cq(cqe=256) failed: Connection timed out
[1741450283.526908] [ohm:1965651:0]        ib_iface.c:1059 UCX  ERROR ibv_create_cq(cqe=256) failed: Connection timed out
[1741450283.529037] [ohm:1965557:0]        ib_iface.c:1059 UCX  ERROR ibv_create_cq(cqe=256) failed: Connection timed out
[1741450283.534163] [ohm:1965582:0]        ib_iface.c:1059 UCX  ERROR ibv_create_cq(cqe=256) failed: Connection timed out
[1741450283.558658] [ohm:1965693:0]        ib_iface.c:1059 UCX  ERROR ibv_create_cq(cqe=256) failed: Connection timed out
[1741450283.559042] [ohm:1965644:0]        ib_iface.c:1059 UCX  ERROR ibv_create_cq(cqe=256) failed: Connection timed out
[1741450283.562843] [ohm:1965617:0]        ib_iface.c:1059 UCX  ERROR ibv_create_cq(cqe=256) failed: Connection timed out
[1741450283.562889] [ohm:1965586:0]        ib_iface.c:1059 UCX  ERROR ibv_create_cq(cqe=256) failed: Connection timed out
[1741450283.565069] [ohm:1965619:0]        ib_iface.c:1059 UCX  ERROR ibv_create_cq(cqe=256) failed: Connection timed out
[1741450283.586318] [ohm:1965623:0]        ib_iface.c:1059 UCX  ERROR ibv_create_cq(cqe=256) failed: Connection timed out
[1741450283.596147] [ohm:1965590:0]        ib_iface.c:1059 UCX  ERROR ibv_create_cq(cqe=256) failed: Connection timed out
[1741450283.598932] [ohm:1965554:0]        ib_iface.c:1059 UCX  ERROR ibv_create_cq(cqe=256) failed: Connection timed out
[1741450283.600367] [ohm:1965614:0]        ib_iface.c:1059 UCX  ERROR ibv_create_cq(cqe=256) failed: Connection timed out
[1741450283.600921] [ohm:1965598:0]        ib_iface.c:1059 UCX  ERROR ibv_create_cq(cqe=256) failed: Connection timed out
[1741450283.605404] [ohm:1965682:0]        ib_iface.c:1059 UCX  ERROR ibv_create_cq(cqe=256) failed: Connection timed out
[1741450283.612847] [ohm:1965670:0]        ib_iface.c:1059 UCX  ERROR ibv_create_cq(cqe=256) failed: Connection timed out
[1741450283.619171] [ohm:1965549:0]        ib_iface.c:1059 UCX  ERROR ibv_create_cq(cqe=256) failed: Connection timed out
[1741450283.627687] [ohm:1965543:0]        ib_iface.c:1059 UCX  ERROR ibv_create_cq(cqe=256) failed: Connection timed out
[1741450283.635926] [ohm:1965560:0]        ib_iface.c:1059 UCX  ERROR ibv_create_cq(cqe=256) failed: Connection timed out
[1741450283.637002] [ohm:1965629:0]        ib_iface.c:1059 UCX  ERROR ibv_create_cq(cqe=256) failed: Connection timed out
[1741450283.641740] [ohm:1965648:0]        ib_iface.c:1059 UCX  ERROR ibv_create_cq(cqe=256) failed: Connection timed out
[1741450283.643600] [ohm:1965584:0]        ib_iface.c:1059 UCX  ERROR ibv_create_cq(cqe=256) failed: Connection timed out
[1741450283.647087] [ohm:1965548:0]        ib_iface.c:1059 UCX  ERROR ibv_create_cq(cqe=256) failed: Connection timed out
[1741450283.651840] [ohm:1965559:0]        ib_iface.c:1059 UCX  ERROR ibv_create_cq(cqe=256) failed: Connection timed out
[1741450283.652455] [ohm:1965641:0]        ib_iface.c:1059 UCX  ERROR ibv_create_cq(cqe=256) failed: Connection timed out
[1741450283.652626] [ohm:1965566:0]        ib_iface.c:1059 UCX  ERROR ibv_create_cq(cqe=256) failed: Connection timed out
[1741450283.659010] [ohm:1965600:0]        ib_iface.c:1059 UCX  ERROR ibv_create_cq(cqe=256) failed: Connection timed out
[1741450283.663045] [ohm:1965572:0]        ib_iface.c:1059 UCX  ERROR ibv_create_cq(cqe=256) failed: Connection timed out
[1741450283.664023] [ohm:1965601:0]        ib_iface.c:1059 UCX  ERROR ibv_create_cq(cqe=256) failed: Connection timed out
[1741450283.665614] [ohm:1965676:0]        ib_iface.c:1059 UCX  ERROR ibv_create_cq(cqe=256) failed: Connection timed out
[1741450283.667263] [ohm:1965547:0]        ib_iface.c:1059 UCX  ERROR ibv_create_cq(cqe=256) failed: Connection timed out
[1741450283.668266] [ohm:1965555:0]        ib_iface.c:1059 UCX  ERROR ibv_create_cq(cqe=256) failed: Connection timed out
[1741450283.668540] [ohm:1965580:0]        ib_iface.c:1059 UCX  ERROR ibv_create_cq(cqe=256) failed: Connection timed out
[1741450283.669204] [ohm:1965635:0]        ib_iface.c:1059 UCX  ERROR ibv_create_cq(cqe=256) failed: Connection timed out
[1741450283.671861] [ohm:1965626:0]        ib_iface.c:1059 UCX  ERROR ibv_create_cq(cqe=256) failed: Connection timed out
[1741450283.673490] [ohm:1965663:0]        ib_iface.c:1059 UCX  ERROR ibv_create_cq(cqe=256) failed: Connection timed out
[1741450283.674371] [ohm:1965674:0]        ib_iface.c:1059 UCX  ERROR ibv_create_cq(cqe=256) failed: Connection timed out
[1741450283.676670] [ohm:1965609:0]        ib_iface.c:1059 UCX  ERROR ibv_create_cq(cqe=256) failed: Connection timed out
[1741450283.677493] [ohm:1965568:0]        ib_iface.c:1059 UCX  ERROR ibv_create_cq(cqe=256) failed: Connection timed out


           ************************************************************
           *        Program running with 64 parallel MPI-processes    *
           *              working on a common directory               *
           ************************************************************
------------------------------------------------------------------------------
                             ORCA STARTUP CALCULATIONS
                           -- RI-GTO INTEGRALS CHOSEN --
------------------------------------------------------------------------------
------------------------------------------------------------------------------
                   ___                                                        
                  /   \      - P O W E R E D   B Y -                         
                 /     \                                                     
                 |  |  |   _    _      __       _____    __    __             
                 |  |  |  | |  | |    /  \     |  _  \  |  |  /  |          
                  \  \/   | |  | |   /    \    | | | |  |  | /  /          
                 / \  \   | |__| |  /  /\  \   | |_| |  |  |/  /          
                |  |  |   |  __  | /  /__\  \  |    /   |      \           
                |  |  |   | |  | | |   __   |  |    \   |  |\   \          
                \     /   | |  | | |  |  |  |  | |\  \  |  | \   \       
                 \___/    |_|  |_| |__|  |__|  |_| \__\ |__|  \__/        
                                                                              
                      - O R C A' S   B I G   F R I E N D -                    
                                      &                                       
                       - I N T E G R A L  F E E D E R -                       
                                                                              
 v1 FN, 2020, v2 2021, v3 2022-2024                                           
------------------------------------------------------------------------------


----------------------
SHARK INTEGRAL PACKAGE
----------------------

Number of atoms                             ...     30
Number of basis functions                   ...    882
Number of shells                            ...    322
Maximum angular momentum                    ...      3
Integral batch strategy                     ... SHARK/LIBINT Hybrid
RI-J (if used) integral strategy            ... SPLIT-RIJ (Revised 2003 algorithm where possible)
Printlevel                                  ...      1
Contraction scheme used                     ... SEGMENTED contraction
Prescreening option                         ... SCHWARTZ
   Thresh                                   ... 2.500e-11
   Tcut                                     ... 2.500e-12
   Tpresel                                  ... 2.500e-12 
Coulomb Range Separation                    ... NOT USED
Exchange Range Separation                   ... Long Range
   Mu parameter                             ... 3.000e-01
   Scaling (regular/separated)              ... 1.500e-01 8.500e-01
Multipole approximations                    ... NOT USED
Finite Nucleus Model                        ... NOT USED
CABS basis                                  ... NOT available
Auxiliary Coulomb fitting basis             ... AVAILABLE
   # of basis functions in Aux-J            ...   1014
   # of shells in Aux-J                     ...    330
   Maximum angular momentum in Aux-J        ...      4
Auxiliary J/K fitting basis                 ... NOT available
Auxiliary Correlation fitting basis         ... NOT available
Auxiliary 'external' fitting basis          ... NOT available

Checking pre-screening integrals            ... done (  0.0 sec) Dimension = 322
Check shell pair data                       ... done (  0.0 sec)
Shell pair information
Shell pair cut-off parameter TPreSel        ...   2.5e-12
Total number of shell pairs                 ...     52003
Shell pairs after pre-screening             ...     45258
Total number of primitive shell pairs       ...    129718
Primitive shell pairs kept                  ...     84183
          la=0 lb=0:   8740 shell pairs
          la=1 lb=0:  11953 shell pairs
          la=1 lb=1:   4135 shell pairs
          la=2 lb=0:   8136 shell pairs
          la=2 lb=1:   5624 shell pairs
          la=2 lb=2:   1941 shell pairs
          la=3 lb=0:   2061 shell pairs
          la=3 lb=1:   1497 shell pairs
          la=3 lb=2:   1025 shell pairs
          la=3 lb=3:    146 shell pairs

Calculating one electron integrals          ... done (  0.2 sec)
Calculating RI/J V-Matrix + Cholesky decomp.... done (  0.1 sec)
Calculating Nuclear repulsion               ... done (  0.0 sec) ENN=   1455.339531342287 Eh

Diagonalization of the overlap matrix:
Smallest eigenvalue                        ... 4.923e-07
Time for diagonalization                   ...    0.130 sec
Threshold for overlap eigenvalues          ... 1.000e-07
Number of eigenvalues below threshold      ... 0

IMPORTANT:
Smallest eigenvalue of S below the DiffSThresh (1.000e-06) while
Thresh>1e-12 and/or TCut>1e-13! In order to avoid SCF convergence issues,
Thresh will be set to at least 1e-12 and TCut to at least 1e-13.
This can be turned off by adding %SCF DiffSThresh -1 END to the input.

Time for construction of square roots      ...    0.139 sec
Total time needed                          ...    0.281 sec

-------------------
DFT GRID GENERATION
-------------------

General Integration Accuracy     IntAcc      ... 4.388
Radial Grid Type                 RadialGrid  ... OptM3 with GC (2021)
Angular Grid (max. ang.)         AngularGrid ... 4 (Lebedev-302)
Angular grid pruning method      GridPruning ... 4 (adaptive)
Weight generation scheme         WeightScheme... mBecke (2022)
Basis function cutoff            BFCut       ... 1.0000e-11
Integration weight cutoff        WCut        ... 1.0000e-14
Partially contracted basis set               ... off
Rotationally invariant grid construction     ... off
Angular grids for H and He will be reduced by one unit
Diffuse basis detected: some atoms will have their outermost
                        angular grid increased by 1.

Total number of grid points                  ...   152186
Total number of batches                      ...     2394
Average number of points per batch           ...       63
Average number of grid points per atom       ...     5073

--------------------
COSX GRID GENERATION
--------------------

GRIDX 1
-------
General Integration Accuracy     IntAcc      ... 3.816
Radial Grid Type                 RadialGrid  ... OptM3 with GC (2021)
Angular Grid (max. ang.)         AngularGrid ... 1 (Lebedev-50)
Angular grid pruning method      GridPruning ... 4 (adaptive)
Weight generation scheme         WeightScheme... mBecke (2022)
Basis function cutoff            BFCut       ... 1.0000e-11
Integration weight cutoff        WCut        ... 1.0000e-14
Partially contracted basis set               ... on
Rotationally invariant grid construction     ... off
Angular grids for H and He will be reduced by one unit
Diffuse basis detected: some atoms will have their outermost
                        angular grid increased by 1.

Total number of grid points                  ...    19049
Total number of batches                      ...      166
Average number of points per batch           ...      114
Average number of grid points per atom       ...      635
UseSFitting                                  ... on

GRIDX 2
-------
General Integration Accuracy     IntAcc      ... 4.020
Radial Grid Type                 RadialGrid  ... OptM3 with GC (2021)
Angular Grid (max. ang.)         AngularGrid ... 2 (Lebedev-110)
Angular grid pruning method      GridPruning ... 4 (adaptive)
Weight generation scheme         WeightScheme... mBecke (2022)
Basis function cutoff            BFCut       ... 1.0000e-11
Integration weight cutoff        WCut        ... 1.0000e-14
Partially contracted basis set               ... on
Rotationally invariant grid construction     ... off
Angular grids for H and He will be reduced by one unit
Diffuse basis detected: some atoms will have their outermost
                        angular grid increased by 1.

Total number of grid points                  ...    45902
Total number of batches                      ...      377
Average number of points per batch           ...      121
Average number of grid points per atom       ...     1530
UseSFitting                                  ... on

GRIDX 3
-------
General Integration Accuracy     IntAcc      ... 4.338
Radial Grid Type                 RadialGrid  ... OptM3 with GC (2021)
Angular Grid (max. ang.)         AngularGrid ... 3 (Lebedev-194)
Angular grid pruning method      GridPruning ... 4 (adaptive)
Weight generation scheme         WeightScheme... mBecke (2022)
Basis function cutoff            BFCut       ... 1.0000e-11
Integration weight cutoff        WCut        ... 1.0000e-14
Partially contracted basis set               ... on
Rotationally invariant grid construction     ... off
Angular grids for H and He will be reduced by one unit
Diffuse basis detected: some atoms will have their outermost
                        angular grid increased by 1.

Total number of grid points                  ...   101065
Total number of batches                      ...      805
Average number of points per batch           ...      125
Average number of grid points per atom       ...     3369
UseSFitting                                  ... on
Initializing property integral containers    ... done (  0.0 sec)

SHARK setup successfully completed in   4.3 seconds

Maximum memory used throughout the entire STARTUP-calculation: 80.3 MB
[1741450289.797827] [ohm:1966104:0]        ib_iface.c:1059 UCX  ERROR ibv_create_cq(cqe=256) failed: Connection timed out
[1741450289.802454] [ohm:1966103:0]        ib_iface.c:1059 UCX  ERROR ibv_create_cq(cqe=256) failed: Connection timed out
[1741450289.804511] [ohm:1966107:0]        ib_iface.c:1059 UCX  ERROR ibv_create_cq(cqe=256) failed: Connection timed out
[1741450289.805905] [ohm:1966106:0]        ib_iface.c:1059 UCX  ERROR ibv_create_cq(cqe=256) failed: Connection timed out
[1741450289.817696] [ohm:1966109:0]        ib_iface.c:1059 UCX  ERROR ibv_create_cq(cqe=256) failed: Connection timed out
[1741450289.827695] [ohm:1966196:0]        ib_iface.c:1059 UCX  ERROR ibv_create_cq(cqe=256) failed: Connection timed out
[1741450289.832693] [ohm:1966165:0]        ib_iface.c:1059 UCX  ERROR ibv_create_cq(cqe=256) failed: Connection timed out
[1741450289.856682] [ohm:1966221:0]        ib_iface.c:1059 UCX  ERROR ibv_create_cq(cqe=256) failed: Connection timed out
[1741450289.856916] [ohm:1966112:0]        ib_iface.c:1059 UCX  ERROR ibv_create_cq(cqe=256) failed: Connection timed out
[1741450289.860737] [ohm:1966203:0]        ib_iface.c:1059 UCX  ERROR ibv_create_cq(cqe=256) failed: Connection timed out
[1741450289.865502] [ohm:1966231:0]        ib_iface.c:1059 UCX  ERROR ibv_create_cq(cqe=256) failed: Connection timed out
[1741450289.873715] [ohm:1966183:0]        ib_iface.c:1059 UCX  ERROR ibv_create_cq(cqe=256) failed: Connection timed out
[1741450289.874549] [ohm:1966178:0]        ib_iface.c:1059 UCX  ERROR ibv_create_cq(cqe=256) failed: Connection timed out
[1741450289.878754] [ohm:1966222:0]        ib_iface.c:1059 UCX  ERROR ibv_create_cq(cqe=256) failed: Connection timed out
[1741450289.879460] [ohm:1966129:0]        ib_iface.c:1059 UCX  ERROR ibv_create_cq(cqe=256) failed: Connection timed out
[1741450289.880664] [ohm:1966108:0]        ib_iface.c:1059 UCX  ERROR ibv_create_cq(cqe=256) failed: Connection timed out
[1741450289.880727] [ohm:1966243:0]        ib_iface.c:1059 UCX  ERROR ibv_create_cq(cqe=256) failed: Connection timed out
[1741450289.884262] [ohm:1966168:0]        ib_iface.c:1059 UCX  ERROR ibv_create_cq(cqe=256) failed: Connection timed out
[1741450289.947659] [ohm:1966160:0]        ib_iface.c:1059 UCX  ERROR ibv_create_cq(cqe=256) failed: Connection timed out
[1741450289.997283] [ohm:1966155:0]        ib_iface.c:1059 UCX  ERROR ibv_create_cq(cqe=256) failed: Connection timed out
[1741450289.999668] [ohm:1966145:0]        ib_iface.c:1059 UCX  ERROR ibv_create_cq(cqe=256) failed: Connection timed out
[1741450290.002138] [ohm:1966161:0]        ib_iface.c:1059 UCX  ERROR ibv_create_cq(cqe=256) failed: Connection timed out
[1741450290.006078] [ohm:1966164:0]        ib_iface.c:1059 UCX  ERROR ibv_create_cq(cqe=256) failed: Connection timed out
[1741450290.016362] [ohm:1966167:0]        ib_iface.c:1059 UCX  ERROR ibv_create_cq(cqe=256) failed: Connection timed out
[1741450290.020580] [ohm:1966211:0]        ib_iface.c:1059 UCX  ERROR ibv_create_cq(cqe=256) failed: Connection timed out
[1741450290.021606] [ohm:1966162:0]        ib_iface.c:1059 UCX  ERROR ibv_create_cq(cqe=256) failed: Connection timed out
[1741450290.023452] [ohm:1966163:0]        ib_iface.c:1059 UCX  ERROR ibv_create_cq(cqe=256) failed: Connection timed out
[1741450290.031648] [ohm:1966152:0]        ib_iface.c:1059 UCX  ERROR ibv_create_cq(cqe=256) failed: Connection timed out
[1741450290.035022] [ohm:1966138:0]        ib_iface.c:1059 UCX  ERROR ibv_create_cq(cqe=256) failed: Connection timed out
[1741450290.043753] [ohm:1966134:0]        ib_iface.c:1059 UCX  ERROR ibv_create_cq(cqe=256) failed: Connection timed out
[1741450290.052926] [ohm:1966159:0]        ib_iface.c:1059 UCX  ERROR ibv_create_cq(cqe=256) failed: Connection timed out
[1741450290.064547] [ohm:1966170:0]        ib_iface.c:1059 UCX  ERROR ibv_create_cq(cqe=256) failed: Connection timed out
[1741450290.069559] [ohm:1966185:0]        ib_iface.c:1059 UCX  ERROR ibv_create_cq(cqe=256) failed: Connection timed out
[1741450290.070858] [ohm:1966133:0]        ib_iface.c:1059 UCX  ERROR ibv_create_cq(cqe=256) failed: Connection timed out
[1741450290.073230] [ohm:1966175:0]        ib_iface.c:1059 UCX  ERROR ibv_create_cq(cqe=256) failed: Connection timed out
[1741450290.075779] [ohm:1966241:0]        ib_iface.c:1059 UCX  ERROR ibv_create_cq(cqe=256) failed: Connection timed out
[1741450290.086726] [ohm:1966251:0]        ib_iface.c:1059 UCX  ERROR ibv_create_cq(cqe=256) failed: Connection timed out
[1741450290.086808] [ohm:1966135:0]        ib_iface.c:1059 UCX  ERROR ibv_create_cq(cqe=256) failed: Connection timed out
[1741450290.090157] [ohm:1966189:0]        ib_iface.c:1059 UCX  ERROR ibv_create_cq(cqe=256) failed: Connection timed out
[1741450290.091519] [ohm:1966230:0]        ib_iface.c:1059 UCX  ERROR ibv_create_cq(cqe=256) failed: Connection timed out
[1741450290.094745] [ohm:1966113:0]        ib_iface.c:1059 UCX  ERROR ibv_create_cq(cqe=256) failed: Connection timed out
[1741450290.103028] [ohm:1966132:0]        ib_iface.c:1059 UCX  ERROR ibv_create_cq(cqe=256) failed: Connection timed out
[1741450290.106224] [ohm:1966116:0]        ib_iface.c:1059 UCX  ERROR ibv_create_cq(cqe=256) failed: Connection timed out
[1741450290.114746] [ohm:1966235:0]        ib_iface.c:1059 UCX  ERROR ibv_create_cq(cqe=256) failed: Connection timed out
[1741450290.120385] [ohm:1966199:0]        ib_iface.c:1059 UCX  ERROR ibv_create_cq(cqe=256) failed: Connection timed out
[1741450290.122549] [ohm:1966114:0]        ib_iface.c:1059 UCX  ERROR ibv_create_cq(cqe=256) failed: Connection timed out
[1741450290.129061] [ohm:1966131:0]        ib_iface.c:1059 UCX  ERROR ibv_create_cq(cqe=256) failed: Connection timed out
[1741450290.129693] [ohm:1966148:0]        ib_iface.c:1059 UCX  ERROR ibv_create_cq(cqe=256) failed: Connection timed out
[1741450290.130135] [ohm:1966171:0]        ib_iface.c:1059 UCX  ERROR ibv_create_cq(cqe=256) failed: Connection timed out
[1741450290.134489] [ohm:1966166:0]        ib_iface.c:1059 UCX  ERROR ibv_create_cq(cqe=256) failed: Connection timed out
[1741450290.136287] [ohm:1966115:0]        ib_iface.c:1059 UCX  ERROR ibv_create_cq(cqe=256) failed: Connection timed out
[1741450290.137044] [ohm:1966206:0]        ib_iface.c:1059 UCX  ERROR ibv_create_cq(cqe=256) failed: Connection timed out
[1741450290.140406] [ohm:1966193:0]        ib_iface.c:1059 UCX  ERROR ibv_create_cq(cqe=256) failed: Connection timed out
[1741450290.140525] [ohm:1966105:0]        ib_iface.c:1059 UCX  ERROR ibv_create_cq(cqe=256) failed: Connection timed out
[1741450290.143266] [ohm:1966214:0]        ib_iface.c:1059 UCX  ERROR ibv_create_cq(cqe=256) failed: Connection timed out
[1741450290.145215] [ohm:1966140:0]        ib_iface.c:1059 UCX  ERROR ibv_create_cq(cqe=256) failed: Connection timed out
[1741450290.145487] [ohm:1966226:0]        ib_iface.c:1059 UCX  ERROR ibv_create_cq(cqe=256) failed: Connection timed out
[1741450290.147878] [ohm:1966130:0]        ib_iface.c:1059 UCX  ERROR ibv_create_cq(cqe=256) failed: Connection timed out
[1741450290.148010] [ohm:1966248:0]        ib_iface.c:1059 UCX  ERROR ibv_create_cq(cqe=256) failed: Connection timed out
[1741450290.148101] [ohm:1966216:0]        ib_iface.c:1059 UCX  ERROR ibv_create_cq(cqe=256) failed: Connection timed out
[1741450290.149155] [ohm:1966238:0]        ib_iface.c:1059 UCX  ERROR ibv_create_cq(cqe=256) failed: Connection timed out
[1741450290.149249] [ohm:1966158:0]        ib_iface.c:1059 UCX  ERROR ibv_create_cq(cqe=256) failed: Connection timed out
[1741450290.150801] [ohm:1966111:0]        ib_iface.c:1059 UCX  ERROR ibv_create_cq(cqe=256) failed: Connection timed out
[1741450290.151139] [ohm:1966110:0]        ib_iface.c:1059 UCX  ERROR ibv_create_cq(cqe=256) failed: Connection timed out


           ************************************************************
           *        Program running with 64 parallel MPI-processes    *
           *              working on a common directory               *
           ************************************************************
-------------------------------------------------------------------------------
                                 ORCA GUESS
                   Start orbitals & Density for SCF / CASSCF
-------------------------------------------------------------------------------

------------
SCF SETTINGS
------------
Hamiltonian:
 Density Functional     Method          .... DFT(GTOs)
  Functional kind                       .... Exchange-Correlation
  Functional name                       .... wB97M-V exchange-correlation functional
  Functional family                     .... Hybrid MGGA
  Functional refs                              
    [ 0] N. Mardirossian and M. Head-Gordon.,  J. Chem. Phys. 144, 214110 (2016), doi: 10.1063/1.4952647
  Fraction of HF Exchange (short range) .... 0.1500
  Fraction of HF Exchange (long range)  .... 1.0000
  Range separation parameter mu         .... 0.3000
  Functional external parameters        .... 17
    Parameter  0 _cx00      =  8.500000e-01 : u^00 coefficient for exchange
    Parameter  1 _cx01      =  1.007000e+00 : u^01 coefficient for exchange
    Parameter  2 _cx10      =  2.590000e-01 : u^10 coefficient for exchange
    Parameter  3 _css00     =  4.430000e-01 : u^00 coefficient for same-spin correlation
    Parameter  4 _css04     = -1.437000e+00 : u^04 coefficient for same-spin correlation
    Parameter  5 _css10     = -4.535000e+00 : u^10 coefficient for same-spin correlation
    Parameter  6 _css20     = -3.390000e+00 : u^20 coefficient for same-spin correlation
    Parameter  7 _css43     =  4.278000e+00 : u^43 coefficient for same-spin correlation
    Parameter  8 _cos00     =  1.000000e+00 : u^00 coefficient for opposite-spin correlation
    Parameter  9 _cos10     =  1.358000e+00 : u^10 coefficient for opposite-spin correlation
    Parameter 10 _cos20     =  2.924000e+00 : u^20 coefficient for opposite-spin correlation
    Parameter 11 _cos21     = -8.812000e+00 : u^21 coefficient for opposite-spin correlation
    Parameter 12 _cos60     = -1.390000e+00 : u^60 coefficient for opposite-spin correlation
    Parameter 13 _cos61     =  9.142000e+00 : u^61 coefficient for opposite-spin correlation
    Parameter 14 _alpha     =  1.000000e+00 : fraction of HF exchange
    Parameter 15 _beta      = -8.500000e-01 : fraction of short-range exchange
    Parameter 16 _omega     =  3.000000e-01 : range-separation constant
 Long-range corrected/Screened/Range-Separated Hybrid DFT is turned on
   Amount of maximum screened exact exchange              ....  0.850000
   Range separation parameter mu (erf(mu*r12)/r12)        ....  0.300000
 RI-approximation to the Coulomb term is turned on
   Number of AuxJ basis functions       .... 1014
   RIJ-COSX (HFX calculated with COS-X)).... on


General Settings:
 Integral files         IntName         .... orca
 Hartree-Fock type      HFTyp           .... UHF
 Total Charge           Charge          ....    0
 Multiplicity           Mult            ....    3
 Number of Electrons    NEL             ....  132
 Basis Dimension        Dim             ....  882
 Nuclear Repulsion      ENuc            ....   1455.3395313423 Eh

Convergence Acceleration:
 AO-DIIS                CNVDIIS         .... on
   Start iteration      DIISMaxIt       ....    12
   Startup error        DIISStart       ....  0.200000
   # of expansion vecs  DIISMaxEq       ....     5
   Bias factor          DIISBfac        ....   1.050
   Max. coefficient     DIISMaxC        ....  10.000
 MO-DIIS                CNVKDIIS        .... off
 Trust-Rad. Augm. Hess. CNVTRAH         .... auto
   Auto Start mean grad. ratio tolernc. ....  1.125000
   Auto Start start iteration           ....    50
   Auto Start num. interpolation iter.  ....    10
   Max. Number of Micro iterations      ....    24
   Max. Number of Macro iterations      .... Maxiter - #DIIS iter
   Number of Davidson start vectors     ....     2
   Converg. threshold    (grad. norm)   ....   1.000e-05
   Grad. Scal. Fac. for Micro threshold ....   0.100
   Minimum threshold for Micro iter.    ....   1.000e-02
   NR start threshold (gradient norm)   ....   1.000e-04
   Initial trust radius                 ....   0.400
   Minimum AH scaling param. (alpha)    ....   1.000
   Maximum AH scaling param. (alpha)    .... 1000.000
   Quad. conv. algorithm                .... NR
   White noise on init. David. guess    .... on
   Maximum white noise                  ....   0.010
   Pseudo random numbers                .... off
   Inactive MOs                         .... canonical
   Orbital update algorithm             .... Taylor
   Preconditioner                       .... Diag
   Full preconditioner red. dimension   ....   250
 SOSCF                  CNVSOSCF        .... on
   Start iteration      SOSCFMaxIt      ....   150
   Startup grad/error   SOSCFStart      ....  0.003300
   Hessian update       SOSCFHessUp     .... L-BFGS
 Level Shifting         CNVShift        .... on
   Level shift para.    LevelShift      ....    0.2500
   Turn off err/grad.   ShiftErr        ....    0.0010
 Zerner damping         CNVZerner       .... off
 Static damping         CNVDamp         .... on
   Fraction old density DampFac         ....    0.7000
   Max. Damping (<1)    DampMax         ....    0.9800
   Min. Damping (>=0)   DampMin         ....    0.0000
   Turn off err/grad.   DampErr         ....    0.1000

SCF Procedure:
 Maximum # iterations   MaxIter         ....   125
 SCF integral mode      SCFMode         .... Direct
   Integral package                     .... SHARK and LIBINT hybrid scheme
 Reset frequency        DirectResetFreq ....    20
 Integral Threshold     Thresh          ....  1.000e-12 Eh
 Primitive CutOff       TCut            ....  1.000e-13 Eh

Convergence Tolerance:
 Convergence Check Mode ConvCheckMode   .... Total+1el-Energy
 Convergence forced     ConvForced      .... 1
 Energy Change          TolE            ....  1.000e-08 Eh
 1-El. energy change                    ....  1.000e-05 Eh
 Orbital Gradient       TolG            ....  1.000e-05
 Orbital Rotation angle TolX            ....  1.000e-05
 DIIS Error             TolErr          ....  5.000e-07

------------------------------
INITIAL GUESS: MODEL POTENTIAL
------------------------------
Loading Hartree-Fock densities                     ... done
Calculating cut-offs                               ... done
Initializing the effective Hamiltonian             ... done
Setting up the integral package (SHARK)            ... done
Starting the Coulomb interaction                   ... done (   0.1 sec)
Making the grid                                    ... done (   0.2 sec)
Mapping shells                                     ... done
Starting the XC term evaluation                    ... done (   0.1 sec)
  promolecular density results
     # of electrons  =    132.003113089
     EX              =   -113.646897730
     EC              =     -4.485069024
     EX+EC           =   -118.131966754
Transforming the Hamiltonian                       ... done (   0.1 sec)
Diagonalizing the Hamiltonian                      ... done (   0.1 sec)
Back transforming the eigenvectors                 ... done (   0.1 sec)
Now organizing SCF variables                       ... done
                      ------------------
                      INITIAL GUESS DONE (   1.1 sec)
                      ------------------
             **** ENERGY FILE WAS UPDATED (orca.en.tmp) ****
Finished Guess after   3.6 sec
Maximum memory used throughout the entire GUESS-calculation: 72.6 MB
[1741450293.962515] [ohm:1966615:0]        ib_iface.c:1059 UCX  ERROR ibv_create_cq(cqe=256) failed: Connection timed out
[1741450293.978923] [ohm:1966481:0]        ib_iface.c:1059 UCX  ERROR ibv_create_cq(cqe=256) failed: Connection timed out
[1741450293.987116] [ohm:1966476:0]        ib_iface.c:1059 UCX  ERROR ibv_create_cq(cqe=256) failed: Connection timed out
[1741450294.007916] [ohm:1966480:0]        ib_iface.c:1059 UCX  ERROR ibv_create_cq(cqe=256) failed: Connection timed out
[1741450294.020252] [ohm:1966478:0]        ib_iface.c:1059 UCX  ERROR ibv_create_cq(cqe=256) failed: Connection timed out
[1741450294.023821] [ohm:1966604:0]        ib_iface.c:1059 UCX  ERROR ibv_create_cq(cqe=256) failed: Connection timed out
[1741450294.026485] [ohm:1966483:0]        ib_iface.c:1059 UCX  ERROR ibv_create_cq(cqe=256) failed: Connection timed out
[1741450294.030763] [ohm:1966520:0]        ib_iface.c:1059 UCX  ERROR ibv_create_cq(cqe=256) failed: Connection timed out
[1741450294.031202] [ohm:1966482:0]        ib_iface.c:1059 UCX  ERROR ibv_create_cq(cqe=256) failed: Connection timed out
[1741450294.031197] [ohm:1966488:0]        ib_iface.c:1059 UCX  ERROR ibv_create_cq(cqe=256) failed: Connection timed out
[1741450294.031264] [ohm:1966485:0]        ib_iface.c:1059 UCX  ERROR ibv_create_cq(cqe=256) failed: Connection timed out
[1741450294.031383] [ohm:1966477:0]        ib_iface.c:1059 UCX  ERROR ibv_create_cq(cqe=256) failed: Connection timed out
[1741450294.033459] [ohm:1966479:0]        ib_iface.c:1059 UCX  ERROR ibv_create_cq(cqe=256) failed: Connection timed out
[1741450294.036753] [ohm:1966577:0]        ib_iface.c:1059 UCX  ERROR ibv_create_cq(cqe=256) failed: Connection timed out
[1741450294.045627] [ohm:1966588:0]        ib_iface.c:1059 UCX  ERROR ibv_create_cq(cqe=256) failed: Connection timed out
[1741450294.056832] [ohm:1966490:0]        ib_iface.c:1059 UCX  ERROR ibv_create_cq(cqe=256) failed: Connection timed out
[1741450294.063514] [ohm:1966507:0]        ib_iface.c:1059 UCX  ERROR ibv_create_cq(cqe=256) failed: Connection timed out
[1741450294.095562] [ohm:1966548:0]        ib_iface.c:1059 UCX  ERROR ibv_create_cq(cqe=256) failed: Connection timed out
[1741450294.100436] [ohm:1966491:0]        ib_iface.c:1059 UCX  ERROR ibv_create_cq(cqe=256) failed: Connection timed out
[1741450294.111461] [ohm:1966553:0]        ib_iface.c:1059 UCX  ERROR ibv_create_cq(cqe=256) failed: Connection timed out
[1741450294.122512] [ohm:1966526:0]        ib_iface.c:1059 UCX  ERROR ibv_create_cq(cqe=256) failed: Connection timed out
[1741450294.124073] [ohm:1966510:0]        ib_iface.c:1059 UCX  ERROR ibv_create_cq(cqe=256) failed: Connection timed out
[1741450294.132883] [ohm:1966542:0]        ib_iface.c:1059 UCX  ERROR ibv_create_cq(cqe=256) failed: Connection timed out
[1741450294.148781] [ohm:1966513:0]        ib_iface.c:1059 UCX  ERROR ibv_create_cq(cqe=256) failed: Connection timed out
[1741450294.156137] [ohm:1966549:0]        ib_iface.c:1059 UCX  ERROR ibv_create_cq(cqe=256) failed: Connection timed out
[1741450294.157098] [ohm:1966543:0]        ib_iface.c:1059 UCX  ERROR ibv_create_cq(cqe=256) failed: Connection timed out
[1741450294.159846] [ohm:1966571:0]        ib_iface.c:1059 UCX  ERROR ibv_create_cq(cqe=256) failed: Connection timed out
[1741450294.163116] [ohm:1966618:0]        ib_iface.c:1059 UCX  ERROR ibv_create_cq(cqe=256) failed: Connection timed out
[1741450294.166707] [ohm:1966585:0]        ib_iface.c:1059 UCX  ERROR ibv_create_cq(cqe=256) failed: Connection timed out
[1741450294.174371] [ohm:1966540:0]        ib_iface.c:1059 UCX  ERROR ibv_create_cq(cqe=256) failed: Connection timed out
[1741450294.184020] [ohm:1966569:0]        ib_iface.c:1059 UCX  ERROR ibv_create_cq(cqe=256) failed: Connection timed out
[1741450294.193631] [ohm:1966541:0]        ib_iface.c:1059 UCX  ERROR ibv_create_cq(cqe=256) failed: Connection timed out
[1741450294.205979] [ohm:1966538:0]        ib_iface.c:1059 UCX  ERROR ibv_create_cq(cqe=256) failed: Connection timed out
[1741450294.211041] [ohm:1966527:0]        ib_iface.c:1059 UCX  ERROR ibv_create_cq(cqe=256) failed: Connection timed out
[1741450294.215637] [ohm:1966484:0]        ib_iface.c:1059 UCX  ERROR ibv_create_cq(cqe=256) failed: Connection timed out
[1741450294.217720] [ohm:1966523:0]        ib_iface.c:1059 UCX  ERROR ibv_create_cq(cqe=256) failed: Connection timed out
[1741450294.240072] [ohm:1966508:0]        ib_iface.c:1059 UCX  ERROR ibv_create_cq(cqe=256) failed: Connection timed out
[1741450294.245115] [ohm:1966506:0]        ib_iface.c:1059 UCX  ERROR ibv_create_cq(cqe=256) failed: Connection timed out
[1741450294.248274] [ohm:1966544:0]        ib_iface.c:1059 UCX  ERROR ibv_create_cq(cqe=256) failed: Connection timed out
[1741450294.250019] [ohm:1966562:0]        ib_iface.c:1059 UCX  ERROR ibv_create_cq(cqe=256) failed: Connection timed out
[1741450294.250186] [ohm:1966539:0]        ib_iface.c:1059 UCX  ERROR ibv_create_cq(cqe=256) failed: Connection timed out
[1741450294.256716] [ohm:1966573:0]        ib_iface.c:1059 UCX  ERROR ibv_create_cq(cqe=256) failed: Connection timed out
[1741450294.259907] [ohm:1966546:0]        ib_iface.c:1059 UCX  ERROR ibv_create_cq(cqe=256) failed: Connection timed out
[1741450294.267504] [ohm:1966516:0]        ib_iface.c:1059 UCX  ERROR ibv_create_cq(cqe=256) failed: Connection timed out
[1741450294.269367] [ohm:1966545:0]        ib_iface.c:1059 UCX  ERROR ibv_create_cq(cqe=256) failed: Connection timed out
[1741450294.273026] [ohm:1966487:0]        ib_iface.c:1059 UCX  ERROR ibv_create_cq(cqe=256) failed: Connection timed out
[1741450294.273971] [ohm:1966535:0]        ib_iface.c:1059 UCX  ERROR ibv_create_cq(cqe=256) failed: Connection timed out
[1741450294.276236] [ohm:1966595:0]        ib_iface.c:1059 UCX  ERROR ibv_create_cq(cqe=256) failed: Connection timed out
[1741450294.277213] [ohm:1966621:0]        ib_iface.c:1059 UCX  ERROR ibv_create_cq(cqe=256) failed: Connection timed out
[1741450294.278538] [ohm:1966599:0]        ib_iface.c:1059 UCX  ERROR ibv_create_cq(cqe=256) failed: Connection timed out
[1741450294.280285] [ohm:1966592:0]        ib_iface.c:1059 UCX  ERROR ibv_create_cq(cqe=256) failed: Connection timed out
[1741450294.281252] [ohm:1966565:0]        ib_iface.c:1059 UCX  ERROR ibv_create_cq(cqe=256) failed: Connection timed out
[1741450294.282850] [ohm:1966533:0]        ib_iface.c:1059 UCX  ERROR ibv_create_cq(cqe=256) failed: Connection timed out
[1741450294.282991] [ohm:1966559:0]        ib_iface.c:1059 UCX  ERROR ibv_create_cq(cqe=256) failed: Connection timed out
[1741450294.283873] [ohm:1966486:0]        ib_iface.c:1059 UCX  ERROR ibv_create_cq(cqe=256) failed: Connection timed out
[1741450294.284375] [ohm:1966611:0]        ib_iface.c:1059 UCX  ERROR ibv_create_cq(cqe=256) failed: Connection timed out
[1741450294.284613] [ohm:1966624:0]        ib_iface.c:1059 UCX  ERROR ibv_create_cq(cqe=256) failed: Connection timed out
[1741450294.288335] [ohm:1966607:0]        ib_iface.c:1059 UCX  ERROR ibv_create_cq(cqe=256) failed: Connection timed out
[1741450294.291545] [ohm:1966578:0]        ib_iface.c:1059 UCX  ERROR ibv_create_cq(cqe=256) failed: Connection timed out
[1741450294.292199] [ohm:1966489:0]        ib_iface.c:1059 UCX  ERROR ibv_create_cq(cqe=256) failed: Connection timed out
[1741450294.292760] [ohm:1966531:0]        ib_iface.c:1059 UCX  ERROR ibv_create_cq(cqe=256) failed: Connection timed out
[1741450294.292991] [ohm:1966551:0]        ib_iface.c:1059 UCX  ERROR ibv_create_cq(cqe=256) failed: Connection timed out
[1741450294.294793] [ohm:1966547:0]        ib_iface.c:1059 UCX  ERROR ibv_create_cq(cqe=256) failed: Connection timed out
[1741450294.297196] [ohm:1966582:0]        ib_iface.c:1059 UCX  ERROR ibv_create_cq(cqe=256) failed: Connection timed out


           ************************************************************
           *        Program running with 64 parallel MPI-processes    *
           *              working on a common directory               *
           ************************************************************

-------------------------------------------------------------------------------------------
                                      ORCA LEAN-SCF
                              memory conserving SCF solver
-------------------------------------------------------------------------------------------

----------------------------------------D-I-I-S--------------------------------------------
Iteration    Energy (Eh)           Delta-E    RMSDP     MaxDP     DIISErr   Damp  Time(sec)
-------------------------------------------------------------------------------------------
               ***  Starting incremental Fock matrix formation  ***
    1    -908.0496148753306898     0.00e+00  1.45e-03  2.09e-01  1.57e-01  0.700   8.0
Warning: op=0 Small HOMO/LUMO gap (   0.095) - skipping pre-diagonalization
         Will do a full diagonalization
    2    -908.3292702798505616    -2.80e-01  1.35e-03  1.48e-01  7.67e-02  0.700   6.8
                               ***Turning on AO-DIIS***
    3    -908.4586027521584128    -1.29e-01  9.02e-04  1.03e-01  3.01e-02  0.700   5.8
    4    -908.5373541795777328    -7.88e-02  1.99e-03  2.46e-01  2.11e-02  0.000   5.8
    5    -908.7193664760613956    -1.82e-01  3.81e-04  5.17e-02  9.59e-03  0.000   5.9
    6    -908.7242413559067700    -4.87e-03  2.80e-04  3.20e-02  8.77e-03  0.000   5.6
    7    -908.7282888107954477    -4.05e-03  4.27e-04  7.07e-02  7.78e-03  0.000   5.6
    8    -908.7326994249863219    -4.41e-03  1.84e-04  2.56e-02  6.05e-03  0.000   5.6
    9    -908.7346762027571003    -1.98e-03  2.32e-04  4.80e-02  4.25e-03  0.000   5.5
                              *** Initializing SOSCF ***
---------------------------------------S-O-S-C-F--------------------------------------
Iteration    Energy (Eh)           Delta-E    RMSDP     MaxDP     MaxGrad    Time(sec)
--------------------------------------------------------------------------------------
   10    -908.7360094577218206    -1.33e-03  9.46e-05  1.37e-02  2.74e-03     6.4
               *** Restarting incremental Fock matrix formation ***
   11    -908.7365139306746187    -5.04e-04  1.43e-04  1.30e-02  5.77e-03     7.6
   12    -908.7367585375247927    -2.45e-04  1.34e-04  1.42e-02  3.25e-03     6.8
   13    -908.7368798093777968    -1.21e-04  6.39e-05  6.05e-03  4.32e-04     6.9
   14    -908.7368976335199022    -1.78e-05  1.69e-05  1.64e-03  3.34e-04     6.7
   15    -908.7369038569001987    -6.22e-06  1.29e-05  1.61e-03  2.30e-04     6.4
   16    -908.7369060625735528    -2.21e-06  8.30e-06  1.39e-03  1.47e-04     6.4
   17    -908.7369070544925762    -9.92e-07  9.08e-06  1.49e-03  8.09e-05     6.2
   18    -908.7369074557261683    -4.01e-07  1.72e-06  2.11e-04  3.26e-05     6.3
   19    -908.7369075078051992    -5.21e-08  1.72e-06  2.47e-04  1.82e-05     5.9
   20    -908.7369075538315428    -4.60e-08  9.66e-07  1.75e-04  1.52e-05     5.8
   21    -908.7369075734411581    -1.96e-08  1.00e-06  1.65e-04  5.83e-06     5.7
   22    -908.7369075875797080    -1.41e-08  1.23e-06  3.15e-04  4.54e-06     5.6
   23    -908.7369075732151487     1.44e-08  1.08e-06  1.75e-04  1.19e-06     5.5
                  *** Gradient check signals convergence ***

               *****************************************************
               *                     SUCCESS                       *
               *           SCF CONVERGED AFTER  23 CYCLES          *
               *****************************************************

Recomputing exchange energy using gridx3       ... done (    7.960 sec)
Old exchange energy                            :    -35.062202537 Eh
New exchange energy                            :    -35.062196432 Eh
Exchange energy change after final integration :      0.000006104 Eh
Total energy after final integration           :   -908.736901469 Eh
             **** ENERGY FILE WAS UPDATED (orca.en.tmp) ****

----------------
TOTAL SCF ENERGY
----------------

Total Energy       :       -908.73690146889896 Eh          -24727.98824 eV

Components:
Nuclear Repulsion  :       1455.33953134228727 Eh           39601.80196 eV
Electronic Energy  :      -2364.07643891550242 Eh          -64329.79037 eV
One Electron Energy:      -4128.07008328747634 Eh         -112330.49774 eV
Two Electron Energy:       1763.99364437197391 Eh           48000.70737 eV

Virial components:
Potential Energy   :      -1815.41031876265515 Eh          -49399.82621 eV
Kinetic Energy     :        906.67341729375630 Eh           24671.83798 eV
Virial Ratio       :          2.00227588471856

DFT components:
N(Alpha)           :       66.999973757159 electrons
N(Beta)            :       64.999980597172 electrons
N(Total)           :      131.999954354331 electrons
E(XC)              :      -86.397543624830 Eh       

---------------
SCF CONVERGENCE
---------------

  Last Energy change         ...   -1.4365e-08  Tolerance :   1.0000e-08
  Last MAX-Density change    ...    1.7541e-04  Tolerance :   1.0000e-07
  Last RMS-Density change    ...    1.0766e-06  Tolerance :   5.0000e-09
  Last DIIS Error            ...    2.7359e-03  Tolerance :   5.0000e-07
  Last Orbital Gradient      ...    1.1865e-06  Tolerance :   1.0000e-05
  Last Orbital Rotation      ...    6.1401e-06  Tolerance :   1.0000e-05


----------------------
UHF SPIN CONTAMINATION
----------------------

Warning: in a DFT calculation there is little theoretical justification to 
         calculate <S**2> as in Hartree-Fock theory. We will do it anyways
         but you should keep in mind that the values have only limited relevance

Expectation value of <S**2>     :     2.009583
Ideal value S*(S+1) for S=1.0   :     2.000000
Deviation                       :     0.009583

----------------
ORBITAL ENERGIES
----------------
                 SPIN UP ORBITALS
  NO   OCC          E(Eh)            E(eV) 
   0   1.0000     -19.336635      -526.1766 
   1   1.0000     -19.318605      -525.6860 
   2   1.0000     -19.318550      -525.6845 
   3   1.0000     -19.316672      -525.6334 
   4   1.0000     -14.598233      -397.2381 
   5   1.0000     -14.574008      -396.5789 
   6   1.0000     -14.562193      -396.2574 
   7   1.0000     -14.554291      -396.0424 
   8   1.0000     -10.513462      -286.0858 
   9   1.0000     -10.502823      -285.7963 
  10   1.0000     -10.472434      -284.9694 
  11   1.0000     -10.455928      -284.5203 
  12   1.0000     -10.428444      -283.7724 
  13   1.0000     -10.405452      -283.1467 
  14   1.0000     -10.399815      -282.9933 
  15   1.0000     -10.375089      -282.3205 
  16   1.0000     -10.359052      -281.8841 
  17   1.0000     -10.356401      -281.8120 
  18   1.0000      -1.237132       -33.6641 
  19   1.0000      -1.222320       -33.2610 
  20   1.0000      -1.194011       -32.4907 
  21   1.0000      -1.191537       -32.4234 
  22   1.0000      -1.134763       -30.8785 
  23   1.0000      -1.118991       -30.4493 
  24   1.0000      -1.069064       -29.0907 
  25   1.0000      -1.066629       -29.0245 
  26   1.0000      -0.979070       -26.6418 
  27   1.0000      -0.957645       -26.0588 
  28   1.0000      -0.858698       -23.3664 
  29   1.0000      -0.848504       -23.0890 
  30   1.0000      -0.815922       -22.2024 
  31   1.0000      -0.809631       -22.0312 
  32   1.0000      -0.797645       -21.7050 
  33   1.0000      -0.790186       -21.5021 
  34   1.0000      -0.707151       -19.2426 
  35   1.0000      -0.698264       -19.0007 
  36   1.0000      -0.692213       -18.8361 
  37   1.0000      -0.690368       -18.7859 
  38   1.0000      -0.646377       -17.5888 
  39   1.0000      -0.636685       -17.3251 
  40   1.0000      -0.635212       -17.2850 
  41   1.0000      -0.603191       -16.4136 
  42   1.0000      -0.598924       -16.2975 
  43   1.0000      -0.592149       -16.1132 
  44   1.0000      -0.575251       -15.6534 
  45   1.0000      -0.574579       -15.6351 
  46   1.0000      -0.560400       -15.2492 
  47   1.0000      -0.552724       -15.0404 
  48   1.0000      -0.549999       -14.9662 
  49   1.0000      -0.548315       -14.9204 
  50   1.0000      -0.531293       -14.4572 
  51   1.0000      -0.528218       -14.3735 
  52   1.0000      -0.522299       -14.2125 
  53   1.0000      -0.515767       -14.0347 
  54   1.0000      -0.504895       -13.7389 
  55   1.0000      -0.501280       -13.6405 
  56   1.0000      -0.497768       -13.5450 
  57   1.0000      -0.471546       -12.8314 
  58   1.0000      -0.425759       -11.5855 
  59   1.0000      -0.412371       -11.2212 
  60   1.0000      -0.410090       -11.1591 
  61   1.0000      -0.396887       -10.7998 
  62   1.0000      -0.389050       -10.5866 
  63   1.0000      -0.387479       -10.5438 
  64   1.0000      -0.383226       -10.4281 
  65   1.0000      -0.342876        -9.3301 
  66   1.0000      -0.210806        -5.7363 
  67   0.0000       0.011932         0.3247 
  68   0.0000       0.023170         0.6305 
  69   0.0000       0.033647         0.9156 
  70   0.0000       0.039760         1.0819 
  71   0.0000       0.040860         1.1119 
  72   0.0000       0.056587         1.5398 
  73   0.0000       0.060430         1.6444 
  74   0.0000       0.064165         1.7460 
  75   0.0000       0.066847         1.8190 
  76   0.0000       0.069178         1.8824 
  77   0.0000       0.071312         1.9405 

                 SPIN DOWN ORBITALS
  NO   OCC          E(Eh)            E(eV) 
   0   1.0000     -19.334678      -526.1233 
   1   1.0000     -19.318476      -525.6824 
   2   1.0000     -19.316644      -525.6326 
   3   1.0000     -19.312396      -525.5170 
   4   1.0000     -14.593557      -397.1109 
   5   1.0000     -14.573980      -396.5781 
   6   1.0000     -14.562202      -396.2577 
   7   1.0000     -14.553310      -396.0157 
   8   1.0000     -10.513778      -286.0945 
   9   1.0000     -10.502830      -285.7965 
  10   1.0000     -10.472443      -284.9697 
  11   1.0000     -10.455469      -284.5078 
  12   1.0000     -10.428413      -283.7715 
  13   1.0000     -10.396115      -282.8927 
  14   1.0000     -10.389371      -282.7092 
  15   1.0000     -10.375085      -282.3204 
  16   1.0000     -10.359433      -281.8945 
  17   1.0000     -10.356290      -281.8090 
  18   1.0000      -1.232853       -33.5476 
  19   1.0000      -1.222174       -33.2570 
  20   1.0000      -1.191638       -32.4261 
  21   1.0000      -1.184577       -32.2340 
  22   1.0000      -1.124197       -30.5910 
  23   1.0000      -1.118920       -30.4474 
  24   1.0000      -1.066604       -29.0238 
  25   1.0000      -1.063665       -28.9438 
  26   1.0000      -0.958108       -26.0715 
  27   1.0000      -0.954129       -25.9632 
  28   1.0000      -0.848814       -23.0974 
  29   1.0000      -0.846366       -23.0308 
  30   1.0000      -0.809913       -22.0389 
  31   1.0000      -0.805831       -21.9278 
  32   1.0000      -0.790474       -21.5099 
  33   1.0000      -0.789891       -21.4940 
  34   1.0000      -0.695098       -18.9146 
  35   1.0000      -0.692229       -18.8365 
  36   1.0000      -0.690547       -18.7907 
  37   1.0000      -0.689969       -18.7750 
  38   1.0000      -0.636438       -17.3184 
  39   1.0000      -0.634964       -17.2783 
  40   1.0000      -0.629368       -17.1260 
  41   1.0000      -0.594456       -16.1760 
  42   1.0000      -0.591419       -16.0933 
  43   1.0000      -0.590576       -16.0704 
  44   1.0000      -0.568342       -15.4654 
  45   1.0000      -0.560801       -15.2602 
  46   1.0000      -0.556897       -15.1539 
  47   1.0000      -0.548812       -14.9339 
  48   1.0000      -0.543848       -14.7989 
  49   1.0000      -0.539951       -14.6928 
  50   1.0000      -0.522959       -14.2304 
  51   1.0000      -0.522128       -14.2078 
  52   1.0000      -0.516633       -14.0583 
  53   1.0000      -0.505122       -13.7451 
  54   1.0000      -0.501376       -13.6431 
  55   1.0000      -0.500019       -13.6062 
  56   1.0000      -0.471172       -12.8212 
  57   1.0000      -0.454569       -12.3694 
  58   1.0000      -0.421581       -11.4718 
  59   1.0000      -0.411071       -11.1858 
  60   1.0000      -0.396842       -10.7986 
  61   1.0000      -0.386057       -10.5051 
  62   1.0000      -0.383337       -10.4311 
  63   1.0000      -0.379144       -10.3170 
  64   1.0000      -0.342058        -9.3079 
  65   0.0000      -0.106848        -2.9075 
  66   0.0000       0.011635         0.3166 
  67   0.0000       0.024207         0.6587 
  68   0.0000       0.032442         0.8828 
  69   0.0000       0.038433         1.0458 
  70   0.0000       0.040287         1.0963 
  71   0.0000       0.055786         1.5180 
  72   0.0000       0.058773         1.5993 
  73   0.0000       0.062377         1.6974 
  74   0.0000       0.066397         1.8068 
  75   0.0000       0.068167         1.8549 
*Only the first 10 virtual orbitals were printed.

                    ********************************
                    * MULLIKEN POPULATION ANALYSIS *
                    ********************************

--------------------------------------------
MULLIKEN ATOMIC CHARGES AND SPIN POPULATIONS
--------------------------------------------
   0 O :   -0.680178    0.005614
   1 O :   -0.672587    0.230792
   2 O :   -0.646680    0.001156
   3 O :   -0.651286    0.072007
   4 N :   -0.034518    0.001882
   5 N :    0.053646    0.212028
   6 N :    0.040049    0.001569
   7 N :    0.025779    0.047540
   8 C :    0.824585    0.041906
   9 C :    0.951365    0.249805
[...]
[1741450631.052598] [ohm:1969096:0]        ib_iface.c:1059 UCX  ERROR ibv_create_cq(cqe=256) failed: Connection timed out
[1741450631.056416] [ohm:1969192:0]        ib_iface.c:1059 UCX  ERROR ibv_create_cq(cqe=256) failed: Connection timed out
[1741450631.059700] [ohm:1969177:0]        ib_iface.c:1059 UCX  ERROR ibv_create_cq(cqe=256) failed: Connection timed out
[1741450631.061912] [ohm:1969157:0]        ib_iface.c:1059 UCX  ERROR ibv_create_cq(cqe=256) failed: Connection timed out
[1741450631.062092] [ohm:1969188:0]        ib_iface.c:1059 UCX  ERROR ibv_create_cq(cqe=256) failed: Connection timed out
[1741450631.063450] [ohm:1969119:0]        ib_iface.c:1059 UCX  ERROR ibv_create_cq(cqe=256) failed: Connection timed out
[1741450631.063655] [ohm:1969161:0]        ib_iface.c:1059 UCX  ERROR ibv_create_cq(cqe=256) failed: Connection timed out
[1741450631.064577] [ohm:1969142:0]        ib_iface.c:1059 UCX  ERROR ibv_create_cq(cqe=256) failed: Connection timed out
[1741450631.067086] [ohm:1969150:0]        ib_iface.c:1059 UCX  ERROR ibv_create_cq(cqe=256) failed: Connection timed out
[1741450631.067622] [ohm:1969127:0]        ib_iface.c:1059 UCX  ERROR ibv_create_cq(cqe=256) failed: Connection timed out


           ************************************************************
           *        Program running with 64 parallel MPI-processes    *
           *              working on a common directory               *
           ************************************************************

------------------------------------------------------------------------------
                              ORCA PROPERTY CALCULATIONS
------------------------------------------------------------------------------

GBWName                                 ... orca.gbw
Number of atoms                         ...     30
Number of basis functions               ...    882
Max core memory                         ...   1024 MB

Electric properties:
Dipole moment                           ... YES
Quadrupole moment                       ...  NO
Static polarizability (Dipole/Dipole)   ...  NO
Static polarizability (Dipole/Quad.)    ...  NO
Static polarizability (Quad./Quad.)     ...  NO
Static polarizability (Velocity)        ...  NO

Atomic electric properties:
Dipole moment                           ...  NO
Quadrupole moment                       ...  NO
Static polarizability                   ...  NO

Choice of electric origin               ... Center of mass
Position of electric origin             ...    -0.005841     0.025873     0.090528

General magnetic properties:
Magnetizability                         ...  NO

EPR properties:
g-Tensor (aka g-matrix)                 ...  NO
Zero-Field splitting spin-orbit         ...  NO
Zero-field splitting spin-spin          ...  NO
Hyperfine couplings                     ...  NO (   0 nuclei)
Quadrupole couplings                    ...  NO (   0 nuclei)
Contact density                         ...  NO (   0 nuclei)

NMR properties:
Chemical shifts                         ...  NO (   0 nuclei)
Spin-rotation constants                 ...  NO (   0 nuclei)
Spin-spin couplings                     ...  NO (   0 nuclei,    0 pairs)

Choice of magnetic origin               ... GIAO
Position of magnetic origin             ...     0.000000     0.000000     0.000000

Properties with geometric perturbations:
SCF Hessian                             ...  NO
IR spectrum                             ...  NO
VCD spectrum                            ...  NO
X-ray spectroscopy properties:
SCF XES/XAS/RIXS spectra                ...  NO


-------------
DIPOLE MOMENT
-------------

Method             : SCF
Type of density    : Electron Density
Multiplicity       :   3
Irrep              :   0
Energy             :  -908.7369014688989637 Eh
Relativity type    : 
Basis              : AO
                                X                 Y                 Z
Electronic contribution:     -2.754438409      -9.647558343      -5.854996294
Nuclear contribution   :      2.337927320      10.515561586       8.325606719
                        -----------------------------------------
Total Dipole Moment    :     -0.416511089       0.868003244       2.470610424
                        -----------------------------------------
Magnitude (a.u.)       :      2.651570664
Magnitude (Debye)      :      6.739757011



--------------------
Rotational spectrum 
--------------------
 
Rotational constants in cm-1:             0.017157             0.015957             0.013856 
Rotational constants in MHz :           514.365808           478.368434           415.385617 

Dipole components along the rotational axes: 
x,y,z [a.u.] :    -0.955412     0.140076     2.469493 
x,y,z [Debye]:    -2.428464     0.356045     6.276951 

 

-------------
DIPOLE MOMENT
-------------

Method             : TDA/CIS
Type of density    : Electron Density
Level              : Relaxed density
State              :   2
Multiplicity       :   3
Irrep              :   0
Energy             :     0.0000000000000000 Eh
Relativity type    : 
Basis              : AO
                                X                 Y                 Z
Electronic contribution:     -2.796879983      -9.655698872      -5.771877838
Nuclear contribution   :      2.337927320      10.515561586       8.325606719
                        -----------------------------------------
Total Dipole Moment    :     -0.458952663       0.859862715       2.553728881
                        -----------------------------------------
Magnitude (a.u.)       :      2.733410440
Magnitude (Debye)      :      6.947777188



--------------------
Rotational spectrum 
--------------------
 
Rotational constants in cm-1:             0.017157             0.015957             0.013856 
Rotational constants in MHz :           514.365808           478.368434           415.385617 

Dipole components along the rotational axes: 
x,y,z [a.u.] :    -0.973440     0.100030     2.552242 
x,y,z [Debye]:    -2.474288     0.254256     6.487284 

 

Dipole moment calculation done in   0.2 sec 

Maximum memory used throughout the entire PROP-calculation: 81.8 MB
[1741450633.457577] [ohm:1969404:0]        ib_iface.c:1059 UCX  ERROR ibv_create_cq(cqe=256) failed: Connection timed out
[1741450633.474744] [ohm:1969399:0]        ib_iface.c:1059 UCX  ERROR ibv_create_cq(cqe=256) failed: Connection timed out
[1741450633.482726] [ohm:1969402:0]        ib_iface.c:1059 UCX  ERROR ibv_create_cq(cqe=256) failed: Connection timed out
[1741450633.485187] [ohm:1969406:0]        ib_iface.c:1059 UCX  ERROR ibv_create_cq(cqe=256) failed: Connection timed out
[1741450633.499188] [ohm:1969426:0]        ib_iface.c:1059 UCX  ERROR ibv_create_cq(cqe=256) failed: Connection timed out
[1741450633.501179] [ohm:1969403:0]        ib_iface.c:1059 UCX  ERROR ibv_create_cq(cqe=256) failed: Connection timed out
[1741450633.509400] [ohm:1969405:0]        ib_iface.c:1059 UCX  ERROR ibv_create_cq(cqe=256) failed: Connection timed out
[1741450633.535312] [ohm:1969424:0]        ib_iface.c:1059 UCX  ERROR ibv_create_cq(cqe=256) failed: Connection timed out
[1741450633.536198] [ohm:1969401:0]        ib_iface.c:1059 UCX  ERROR ibv_create_cq(cqe=256) failed: Connection timed out
[1741450633.556380] [ohm:1969540:0]        ib_iface.c:1059 UCX  ERROR ibv_create_cq(cqe=256) failed: Connection timed out
[1741450633.571446] [ohm:1969413:0]        ib_iface.c:1059 UCX  ERROR ibv_create_cq(cqe=256) failed: Connection timed out
[1741450633.580828] [ohm:1969488:0]        ib_iface.c:1059 UCX  ERROR ibv_create_cq(cqe=256) failed: Connection timed out
[1741450633.581561] [ohm:1969510:0]        ib_iface.c:1059 UCX  ERROR ibv_create_cq(cqe=256) failed: Connection timed out
[1741450633.588120] [ohm:1969431:0]        ib_iface.c:1059 UCX  ERROR ibv_create_cq(cqe=256) failed: Connection timed out
[1741450633.598425] [ohm:1969477:0]        ib_iface.c:1059 UCX  ERROR ibv_create_cq(cqe=256) failed: Connection timed out
[1741450633.616544] [ohm:1969429:0]        ib_iface.c:1059 UCX  ERROR ibv_create_cq(cqe=256) failed: Connection timed out
[1741450633.618737] [ohm:1969527:0]        ib_iface.c:1059 UCX  ERROR ibv_create_cq(cqe=256) failed: Connection timed out
[1741450633.628610] [ohm:1969482:0]        ib_iface.c:1059 UCX  ERROR ibv_create_cq(cqe=256) failed: Connection timed out
[1741450633.630694] [ohm:1969534:0]        ib_iface.c:1059 UCX  ERROR ibv_create_cq(cqe=256) failed: Connection timed out
[1741450633.634727] [ohm:1969520:0]        ib_iface.c:1059 UCX  ERROR ibv_create_cq(cqe=256) failed: Connection timed out
[1741450633.657274] [ohm:1969434:0]        ib_iface.c:1059 UCX  ERROR ibv_create_cq(cqe=256) failed: Connection timed out
[1741450633.669216] [ohm:1969514:0]        ib_iface.c:1059 UCX  ERROR ibv_create_cq(cqe=256) failed: Connection timed out
[1741450633.675145] [ohm:1969425:0]        ib_iface.c:1059 UCX  ERROR ibv_create_cq(cqe=256) failed: Connection timed out
[1741450633.678113] [ohm:1969448:0]        ib_iface.c:1059 UCX  ERROR ibv_create_cq(cqe=256) failed: Connection timed out
[1741450633.679646] [ohm:1969532:0]        ib_iface.c:1059 UCX  ERROR ibv_create_cq(cqe=256) failed: Connection timed out
[1741450633.691478] [ohm:1969408:0]        ib_iface.c:1059 UCX  ERROR ibv_create_cq(cqe=256) failed: Connection timed out
[1741450633.694208] [ohm:1969414:0]        ib_iface.c:1059 UCX  ERROR ibv_create_cq(cqe=256) failed: Connection timed out
[1741450633.698237] [ohm:1969421:0]        ib_iface.c:1059 UCX  ERROR ibv_create_cq(cqe=256) failed: Connection timed out
[1741450633.700318] [ohm:1969411:0]        ib_iface.c:1059 UCX  ERROR ibv_create_cq(cqe=256) failed: Connection timed out
[1741450633.701164] [ohm:1969521:0]        ib_iface.c:1059 UCX  ERROR ibv_create_cq(cqe=256) failed: Connection timed out
[1741450633.701740] [ohm:1969494:0]        ib_iface.c:1059 UCX  ERROR ibv_create_cq(cqe=256) failed: Connection timed out
[1741450633.703033] [ohm:1969476:0]        ib_iface.c:1059 UCX  ERROR ibv_create_cq(cqe=256) failed: Connection timed out
[1741450633.703742] [ohm:1969418:0]        ib_iface.c:1059 UCX  ERROR ibv_create_cq(cqe=256) failed: Connection timed out
[1741450633.708993] [ohm:1969504:0]        ib_iface.c:1059 UCX  ERROR ibv_create_cq(cqe=256) failed: Connection timed out
[1741450633.709470] [ohm:1969457:0]        ib_iface.c:1059 UCX  ERROR ibv_create_cq(cqe=256) failed: Connection timed out
[1741450633.712375] [ohm:1969496:0]        ib_iface.c:1059 UCX  ERROR ibv_create_cq(cqe=256) failed: Connection timed out
[1741450633.712691] [ohm:1969508:0]        ib_iface.c:1059 UCX  ERROR ibv_create_cq(cqe=256) failed: Connection timed out
[1741450633.713502] [ohm:1969439:0]        ib_iface.c:1059 UCX  ERROR ibv_create_cq(cqe=256) failed: Connection timed out
[1741450633.739871] [ohm:1969530:0]        ib_iface.c:1059 UCX  ERROR ibv_create_cq(cqe=256) failed: Connection timed out
[1741450633.740063] [ohm:1969420:0]        ib_iface.c:1059 UCX  ERROR ibv_create_cq(cqe=256) failed: Connection timed out
[1741450633.740129] [ohm:1969415:0]        ib_iface.c:1059 UCX  ERROR ibv_create_cq(cqe=256) failed: Connection timed out
[1741450633.740609] [ohm:1969485:0]        ib_iface.c:1059 UCX  ERROR ibv_create_cq(cqe=256) failed: Connection timed out
[1741450633.745129] [ohm:1969490:0]        ib_iface.c:1059 UCX  ERROR ibv_create_cq(cqe=256) failed: Connection timed out
[1741450633.746629] [ohm:1969452:0]        ib_iface.c:1059 UCX  ERROR ibv_create_cq(cqe=256) failed: Connection timed out
[1741450633.749285] [ohm:1969416:0]        ib_iface.c:1059 UCX  ERROR ibv_create_cq(cqe=256) failed: Connection timed out
[1741450633.750546] [ohm:1969538:0]        ib_iface.c:1059 UCX  ERROR ibv_create_cq(cqe=256) failed: Connection timed out
[1741450633.755562] [ohm:1969465:0]        ib_iface.c:1059 UCX  ERROR ibv_create_cq(cqe=256) failed: Connection timed out
[1741450633.759813] [ohm:1969459:0]        ib_iface.c:1059 UCX  ERROR ibv_create_cq(cqe=256) failed: Connection timed out
[1741450633.773294] [ohm:1969501:0]        ib_iface.c:1059 UCX  ERROR ibv_create_cq(cqe=256) failed: Connection timed out
[1741450633.777214] [ohm:1969417:0]        ib_iface.c:1059 UCX  ERROR ibv_create_cq(cqe=256) failed: Connection timed out
[1741450633.780667] [ohm:1969422:0]        ib_iface.c:1059 UCX  ERROR ibv_create_cq(cqe=256) failed: Connection timed out
[1741450633.785792] [ohm:1969407:0]        ib_iface.c:1059 UCX  ERROR ibv_create_cq(cqe=256) failed: Connection timed out
[1741450633.790597] [ohm:1969442:0]        ib_iface.c:1059 UCX  ERROR ibv_create_cq(cqe=256) failed: Connection timed out
[1741450633.790713] [ohm:1969427:0]        ib_iface.c:1059 UCX  ERROR ibv_create_cq(cqe=256) failed: Connection timed out
[1741450633.790844] [ohm:1969410:0]        ib_iface.c:1059 UCX  ERROR ibv_create_cq(cqe=256) failed: Connection timed out
[1741450633.791290] [ohm:1969450:0]        ib_iface.c:1059 UCX  ERROR ibv_create_cq(cqe=256) failed: Connection timed out
[1741450633.791564] [ohm:1969499:0]        ib_iface.c:1059 UCX  ERROR ibv_create_cq(cqe=256) failed: Connection timed out
[1741450633.792588] [ohm:1969468:0]        ib_iface.c:1059 UCX  ERROR ibv_create_cq(cqe=256) failed: Connection timed out
[1741450633.793200] [ohm:1969419:0]        ib_iface.c:1059 UCX  ERROR ibv_create_cq(cqe=256) failed: Connection timed out
[1741450633.794042] [ohm:1969400:0]        ib_iface.c:1059 UCX  ERROR ibv_create_cq(cqe=256) failed: Connection timed out
[1741450633.794956] [ohm:1969423:0]        ib_iface.c:1059 UCX  ERROR ibv_create_cq(cqe=256) failed: Connection timed out
[1741450633.795844] [ohm:1969409:0]        ib_iface.c:1059 UCX  ERROR ibv_create_cq(cqe=256) failed: Connection timed out
[1741450633.799224] [ohm:1969428:0]        ib_iface.c:1059 UCX  ERROR ibv_create_cq(cqe=256) failed: Connection timed out
[1741450633.800771] [ohm:1969412:0]        ib_iface.c:1059 UCX  ERROR ibv_create_cq(cqe=256) failed: Connection timed out

--------------------------------
SUGGESTED CITATIONS FOR THIS RUN
--------------------------------

Below you find a list of papers that are relevant to this ORCA run
We neither can nor want to force you to cite these papers, but we appreciate if you do
You receive ORCA, which is the product of decades of hard work by many enthusiastic individuals, for free
The only thing we kindly ask in return is that you cite our papers,
We deeply appreciate it, if you show your appreciation for ORCA by not just citing the generic ORCA reference.

Please note that relegating all ORCA citations to the supporting information does *not* help us.
SI sections are not indexed - citations you put there will not count into any citation statistics
But we need these citations in order to attract the funding resources that allow us to do what we are doing

Therefore, if you are a happy ORCA user, please consider citing a few of the papers listed below in the main body of your paper

In addition to the list printed below, the program has created the file orca.bibtex that contains the list in bibtex format
You can import this file easily into all common literature databanks and citation aid programs


List of essential papers. We consider these as the minimum necessary citations

  1. Neese,F.
     Software update: the ORCA program system, version 5.0
     WIRES Comput. Molec. Sci., 2022 12(1)e1606
     doi.org/10.1002/wcms.1606

List of papers to cite with high priority. The work reported in these papers was absolutely
necessary for this run to complete.
Our perspective: the developers of density functionals and basis sets usually get cited in chemistry papers
Good! But without the algorithms to do something with them, the functionals or basis sets would not do anything.
Hence, in our opinion, the algorithm design and method developments papers are equally worthy of getting cited

  1. Neese,F.; Olbrich,G.
     Efficient use of the resolution of the identity approximation in time-dependent density functional calculations with hybrid density functionals
     Chem. Phys. Lett., 2002 362 170-178
     doi.org/10.1016/s0009-2614(02)01053-9
  2. Neese,F.
     An improvement of the resolution of the identity approximation for the formation of the Coulomb matrix
     J. Comp. Chem., 2003 24(14)1740-1747
     doi.org/10.1002/jcc.10318
  3. Neese,F.; Wennmohs,F.; Hansen,A.; Becker,U.
     Efficient, approximate and parallel Hartree-Fock and hybrid DFT calculations. A 'chain-of-spheres' algorithm for the Hartree-Fock exchange
     Chem. Phys., 2009 356(1-3)98-109
     doi.org/10.1016/j.chemphys.2008.10.036
  4. Petrenko,T.; Kossmann,S.; Neese,F.
     Efficient time-dependent density functional theory approximations for hybrid density functionals: Analytical gradients and parallelization
     J. Chem. Phys., 2011 134 054116
     doi.org/10.1063/1.3533441
  5. Helmich-Paris,B.; de Souza,B.; Neese,F.; Izsák,R.
     An improved chain of spheres for exchange algorithm
     J. Chem. Phys., 2021 155 104109
     doi.org/doi: 10.1063/5.0058766.
  6. Neese,F.
     The SHARK Integral Generation and Digestion System
     J. Comp. Chem., 2022  1-16
     doi.org/10.1002/jcc.26942
  7. Lehtola,S.; Steigemann,C.; Oliveira,M.; Marques,M.
     Recent developments in Libxc - A comprehensive library of functionals for density functional theory
     Software X, 2018 7 
     doi.org/10.1016/j.softx.2017.11.002
  8. Grimme,S.; Antony,J.; Ehrlich,S.; Krieg,H.
     A consistent and accurate ab initio parametrization of density functional dispersion correction (DFT-D) for the 94 elements H-Pu
     J. Chem. Phys., 2010 132 154104-XXXX
     doi.org/10.1063/1.3382344
  9. Grimme,S.; Ehrlich,S.; Goerigk,L.
     Effect of the damping function in dispersion corrected density functional theory
     J. Comput. Chem., 2011 32(7)1456-1465
     doi.org/10.1002/jcc.21759

List of suggested additional citations. These are papers that are important in the 'surrounding' of 
of this run, or papers that preceded the highly important papers. If you like your results we are grateful for a citation.

  1. Izsak,R.; Neese,F.
     An overlap fitted chain of spheres exchange method
     J. Chem. Phys., 2011 135 144105
     doi.org/10.1063/1.3646921
  2. Izsak,R.; Hansen,A.; Neese,F.
     The resolution of identity and chain of spheres approximations for the LPNO-CCSD singles Fock term
     Molec. Phys., 2012 110 2413-2417
     doi.org/10.1080/00268976.2012.687466
  3. Neese,F.
     The ORCA program system
     WIRES Comput. Molec. Sci., 2012 2(1)73-78
     doi.org/10.1002/wcms.81
  4. Izsak,R.; Neese,F.; Klopper,W.
     Robust fitting techniques in the chain of spheres approximation to the Fock exchange: The role of the complementary space
     J. Chem. Phys., 2013 139 
     doi.org/10.1063/1.4819264
  5. Neese,F.
     Software update: the ORCA program system, version 4.0
     WIRES Comput. Molec. Sci., 2018 8(1)1-6
     doi.org/10.1002/wcms.1327
  6. Neese,F.; Wennmohs,F.; Becker,U.; Riplinger,C.
     The ORCA quantum chemistry program package
     J. Chem. Phys., 2020 152 Art. No. L224108
     doi.org/10.1063/5.0004608

List of optional additional citations

  1. Neese,F.
     Approximate second-order SCF convergence for spin unrestricted wavefunctions
     Chem. Phys. Lett., 2000 325(1-3)93-98
     doi.org/10.1016/s0009-2614(00)00662-x

Timings for individual modules:

Sum of individual times          ...      350.105 sec (=   5.835 min)
Startup calculation              ...        6.444 sec (=   0.107 min)   1.8 %
SCF iterations                   ...      160.312 sec (=   2.672 min)  45.8 %
Property integrals               ...        4.060 sec (=   0.068 min)   1.2 %
Property calculations            ...        2.762 sec (=   0.046 min)   0.8 %
CIS module                       ...      176.527 sec (=   2.942 min)  50.4 %
                             ****ORCA TERMINATED NORMALLY****
TOTAL RUN TIME: 0 days 0 hours 5 minutes 52 seconds 143 msec
