30
Properties=species:S:1:pos:R:3:momenta:R:3:forces:R:3 Coordinates=T from=T ORCA-job=T orca=T E=T -908.934106999543=T energy=-24728.849727608093 free_energy=-24728.849727608093 stress="7.807598568691812e-07 -2.3191019338254957e-07 -1.1053906675809434e-06 -2.3191019338254957e-07 2.764193132794502e-06 6.834194888753333e-07 -1.1053906675809434e-06 6.834194888753333e-07 4.4844734082816835e-06" pbc="F F F"
O        2.82647487       1.20180363      -0.42356147       1.27720127      -0.43736632      -0.19470988      -0.34346089      -0.36779955      -0.02645838
O       -0.60142395       0.88829555      -2.30868517      -0.24066312      -0.11071011      -0.38177468       0.22943527      -0.18412286      -0.21057367
O        0.91737940      -2.78741080      -1.53724968       0.39233899      -0.03655257       0.55433316      -0.23968020       1.04921272       1.03328339
O       -2.80602827      -1.64377178       0.80416906      -1.06725959      -0.53715879      -0.24457529      -0.17964281      -0.57150969      -0.17157619
N        0.51468111      -1.91746829       0.54540669      -0.14561976       0.50552198      -0.94192697      -1.52455251      -1.37497412       1.31791560
N       -2.28663406       0.50528758       1.42318478      -0.03876884      -0.66969299      -0.31465148       0.00562661      -1.31818437      -0.34105317
N        1.92785740      -0.84901887      -0.90155727       0.71096002      -0.07503049      -0.47261562      -0.03875065       0.07929112      -0.40453299
N       -1.86091962      -0.28260872      -0.79467124      -0.48884982       0.66922522      -0.37573586      -0.84267344      -1.54003428       0.71240225
C        1.59892225       0.03709412       1.29741722      -0.09561990      -0.39177325       1.08072381       0.51416779       1.43113328      -0.29716361
C       -0.84906675       1.73451071      -0.12168962       0.23622744      -0.36205050       0.27161840       0.55111240       0.79221380      -0.52739881
C        0.76144322      -1.08682425       1.60958668      -0.33803391       0.15398350      -0.45781953      -0.04839396       1.26197476       0.20634252
C       -1.50453199       1.57389755       1.12241625       0.59685774       0.46919787      -0.50278776      -0.51494125       0.94343680       1.09930360
C        1.87634063       1.18870245       2.28173602       0.20107170       0.42592692       0.69583001      -1.21241459       0.22123731      -1.60579574
C       -0.15635466       3.04244138      -0.42532254       0.68714392      -0.05780444       0.42213954      -0.95219792      -0.50267579      -0.00783987
C        2.16596726       0.22022072      -0.06422804      -0.66792973       0.52863239       0.08912468      -0.35984506       0.22826025       2.06626813
C       -1.02970171       0.78065733      -1.16892182      -0.49563892       0.30945320      -0.27099135      -0.21948685       0.35879255       0.10122539
C        1.08033772      -1.89110241      -0.69415787      -0.44299140      -0.25310373       0.07147751       0.49053855      -1.17049908      -0.94171654
C       -2.34149499      -0.59167323       0.47653440      -0.25863556      -0.23538737       0.75174252       0.32363692       1.67142274       1.01256662
H        0.20947343      -1.08249449       2.60253824      -0.03934734       0.27931801      -0.26769038       0.50516761      -0.60106781      -1.34238771
H       -1.68649652       2.42930089       1.76593037      -0.02772449       0.20325255      -0.09745637       0.49305295      -0.12895168      -0.01530502
H        2.06339130       2.11713033       1.61889817       0.03534823       0.01126030       0.06022099       0.13696729      -1.22698171       1.17621241
H        1.01928734       1.43400929       2.94716761      -0.01685298      -0.15337324      -0.03744895       0.26101930      -0.33411808      -0.47198136
H        2.69206050       0.92310611       2.92236819       0.11353972      -0.00070748      -0.02287294       0.63400712       0.18493206       0.13635084
H       -0.66830552       3.53037640      -1.26915805       0.00011216      -0.06700943      -0.03773772       0.18050041      -0.16257719       0.10702084
H       -0.20753522       3.71477870       0.42610466      -0.08862008      -0.03081012      -0.02311300       0.10163725      -0.07874055       0.06431524
H        0.86280486       2.86596647      -0.72178875      -0.13502942      -0.00065036       0.03873909       0.36897985      -0.03067869      -0.10166879
H       -0.13670592      -2.71572522       0.66464399       0.07891390       0.01681553      -0.01882077       0.53327822       0.64943399      -0.01519207
H       -2.60765033       0.36418277       2.42236009       0.04851624       0.12939746       0.31543382       0.33022078      -0.06087958      -1.54941073
H        2.05399563      -0.66411333      -1.86031065       0.20738274      -0.25486129       0.31832808       0.38326522       0.13319134      -0.84225358
H       -2.06336337      -1.08720537      -1.39652480       0.00197078      -0.02794244      -0.00698303       0.43342659       0.64926231      -0.16089861
